ITEM: TIMESTEP
0
ITEM: NUMBER OF ATOMS
5446
ITEM: BOX BOUNDS xy xz yz pp pp ff
-1.6186495746259869e-15 2.9700251489248199e+01 7.3333954294439971e+00
0.0000000000000000e+00 2.2366856059804192e+01 -1.6186495746259869e-15
-1.0125000000000000e+02 1.0125000000000000e+02 1.0892505522088474e-15
ITEM: ATOMS id type x y z c_csym c_eng 
1 2 1.78566e-16 5.44625e-16 0 7.65381 -nan 
2 2 4.2167 2.76471 -0.0371951 11.7339 4.49357 
3 2 8.4334 5.52942 -0.0743902 15.0929 -0.825253 
4 2 12.6501 8.29412 -0.111585 14.8656 -1.46734 
5 2 16.8668 11.0588 -0.14878 15.0967 -2.00162 
6 2 21.0835 13.8235 -0.185976 18.6458 -2.09569 
7 2 25.3002 16.5882 -0.223171 18.4719 -2.17653 
8 2 7.15006 19.353 -0.260366 6.6651 -2.45122 
9 2 11.3668 22.1177 -0.297561 7.11907 -2.61238 
10 2 8.25007 2.51551 -0.334756 11.6693 -2.98792 
11 2 12.4668 5.28022 -0.371951 6.4706 -3.24949 
12 2 16.6835 8.04493 -0.409146 4.49336 -3.22427 
13 2 20.9002 10.8096 -0.446341 6.89199 -3.01798 
14 2 25.1169 13.5743 -0.483537 11.8067 -2.43745 
15 2 6.96673 16.3391 -0.520732 11.369 -1.98402 
16 2 11.1834 19.1038 -0.557927 12.7467 -1.88307 
17 2 15.4001 21.8685 -0.595122 12.7468 -2.13328 
18 2 12.2834 2.26632 -0.632317 10.8787 -2.52042 
19 2 16.5001 5.03103 -0.669512 6.04921 -2.82141 
20 2 20.7168 7.79573 -0.706707 7.45922 -2.9764 
21 2 24.9335 10.5604 -0.743902 10.9602 -3.13476 
22 2 6.78339 13.3252 -0.781098 9.27848 -3.0782 
23 2 11.0001 16.0899 -0.818293 5.33615 -2.90833 
24 2 15.2168 18.8546 -0.855488 7.89672 -2.71874 
25 2 19.4335 21.6193 -0.892683 9.26616 -2.31272 
26 2 16.3168 2.01713 -0.929878 12.6332 -1.96558 
27 2 20.5335 4.78183 -0.967073 11.288 -1.88 
28 2 24.7502 7.54654 -1.00427 11.9038 -2.1936 
29 2 6.60006 10.3112 -1.04146 9.40803 -2.76085 
30 2 10.8168 13.076 -1.07866 5.10926 -3.17293 
31 2 15.0335 15.8407 -1.11585 4.91476 -3.22948 
32 2 19.2502 18.6054 -1.15305 10.6239 -3.09689 
33 2 23.4669 21.3701 -1.19024 12.3055 -2.67956 
34 2 20.3502 1.76793 -1.22744 6.23166 -2.53166 
35 2 2.20002 4.53264 -1.26463 8.69506 -2.43918 
36 2 6.41672 7.29735 -1.30183 10.6437 -2.24262 
37 2 10.6334 10.0621 -1.33902 10.5953 -2.13344 
38 2 14.8501 12.8268 -1.37622 8.60168 -2.08816 
39 2 19.0668 15.5915 -1.41341 9.81323 -2.32958 
40 2 23.2835 18.3562 -1.45061 12.3253 -2.86714 
41 2 27.5002 21.1209 -1.4878 2.06648 -3.29548 
42 2 2.01668 1.51874 -1.525 0.437587 -3.37457 
43 2 6.23339 4.28344 -1.5622 1.42216 -3.36995 
44 2 10.4501 7.04815 -1.59939 4.48527 -3.35068 
45 2 14.6668 9.81286 -1.63659 6.17084 -3.31042 
46 2 18.8835 12.5776 -1.67378 7.35387 -3.30629 
47 2 23.1002 15.3423 -1.71098 8.7476 -3.30271 
48 2 27.3169 18.107 -1.74817 6.59628 -3.27747 
49 2 9.16674 20.8717 -1.78537 1.23606e-19 -3.35993 
50 2 6.05005 1.26954 -1.82256 2.2367 -3.32389 
51 2 10.2668 4.03425 -1.85976 1.14669 -3.30317 
52 2 14.4835 6.79896 -1.89695 0.3039 -3.30212 
53 2 18.7002 9.56367 -1.93415 0.336287 -3.30117 
54 2 22.9169 12.3284 -1.97134 1.24385 -3.3148 
55 2 27.1336 15.0931 -2.00854 3.02658 -3.30401 
56 2 8.98341 17.8578 -2.04573 2.3783 -3.3003 
57 2 13.2001 20.6225 -2.08293 4.97539 -3.30816 
58 2 10.0834 1.02035 -2.12012 2.72268 -3.33434 
59 2 14.3001 3.78506 -2.15732 1.34515 -3.33026 
60 2 18.5168 6.54976 -2.19451 0.842787 -3.30853 
61 2 22.7335 9.31447 -2.23171 1.2156 -3.27568 
62 2 4.58337 12.0792 -2.2689 1.7302 -3.26668 
63 2 8.80007 14.8439 -2.3061 0.919797 -3.29188 
64 2 13.0168 17.6086 -2.34329 0.984571 -3.32056 
65 2 17.2335 20.3733 -2.38049 1.92452 -3.3351 
66 2 14.1168 0.771155 -2.41768 3.73964 -3.32024 
67 2 18.3335 3.53586 -2.45488 2.5728 -3.29994 
68 2 22.5502 6.30057 -2.49207 3.82484 -3.29921 
69 2 4.40004 9.06528 -2.52927 2.02582 -3.31771 
70 2 8.61674 11.83 -2.56646 0.680671 -3.31305 
71 2 12.8334 14.5947 -2.60366 0.210697 -3.29509 
72 2 17.0501 17.3594 -2.64085 0.615897 -3.2786 
73 2 21.2668 20.1241 -2.67805 1.89627 -3.27473 
74 2 18.1502 0.521961 -2.71524 1.95709 -3.28725 
75 2 22.3669 3.28667 -2.75244 2.05425 -3.36715 
76 2 4.2167 6.05138 -2.78963 3.02658 -3.36963 
77 2 8.4334 8.81608 -2.82683 3.9991 -3.34283 
78 2 12.6501 11.5808 -2.86402 2.96181 -3.31994 
79 2 16.8668 14.3455 -2.90122 2.79969 -3.30096 
80 2 21.0835 17.1102 -2.93841 3.51275 -3.27415 
81 2 25.3002 19.8749 -2.97561 4.40817 -3.2456 
82 2 22.1835 0.272767 -3.0128 8.60609 -3.34673 
83 2 4.03337 3.03747 -3.05 4.00002e-20 -3.33979 
84 2 8.25007 5.80218 -3.0872 1.49994e-19 -3.32585 
85 2 12.4668 8.56689 -3.12439 1.20003e-19 -3.30405 
86 2 16.6835 11.3316 -3.16159 1.39988e-19 -3.31123 
87 2 20.9002 14.0963 -3.19878 9.00117e-20 -3.31431 
88 2 25.1169 16.861 -3.23598 1.1997e-19 -3.29797 
89 2 6.96673 19.6257 -3.27317 6.53768e-20 -3.33622 
90 2 3.85003 0.0235724 -3.31037 9.88522e-20 -3.33314 
91 2 8.06673 2.78828 -3.34756 8.19515e-20 -3.30705 
92 2 12.2834 5.55299 -3.38476 1.30005e-19 -3.29824 
93 2 16.5001 8.3177 -3.42195 1.59999e-19 -3.30155 
94 2 20.7168 11.0824 -3.45915 1.40008e-19 -3.30816 
95 2 24.9335 13.8471 -3.49634 1.00036e-19 -3.31326 
96 2 6.78339 16.6118 -3.53354 1.18376e-19 -3.31212 
97 2 11.0001 19.3765 -3.57073 9.31562e-20 -3.31391 
98 2 15.2168 22.1412 -3.60793 5.41172e-20 -3.3205 
99 2 12.1001 2.53909 -3.64512 8.19606e-20 -3.32048 
100 2 16.3168 5.30379 -3.68232 7.99961e-20 -3.31071 
101 2 20.5335 8.0685 -3.71951 1.30007e-19 -3.30294 
102 2 24.7502 10.8332 -3.75671 1.38382e-19 -3.302 
103 2 6.60006 13.5979 -3.7939 1.00027e-19 -3.30161 
104 2 10.8168 16.3626 -3.8311 1.3001e-19 -3.30589 
105 2 15.0335 19.1273 -3.86829 1.09992e-19 -3.31584 
106 2 19.2502 21.892 -3.90549 7.9661e-20 -3.32116 
107 2 16.1335 2.28989 -3.94268 8.19532e-20 -3.31625 
108 2 20.3502 5.0546 -3.97988 6.00043e-20 -3.31257 
109 2 24.5669 7.81931 -4.01707 1.12606e-19 -3.31313 
110 2 6.41672 10.584 -4.05427 1.29997e-19 -3.31232 
111 2 10.6334 13.3487 -4.09146 9.99979e-20 -3.30432 
112 2 14.8501 16.1134 -4.12866 1.40002e-19 -3.30028 
113 2 19.0668 18.8781 -4.16585 1.3001e-19 -3.30275 
114 2 23.2835 21.6428 -4.20305 1.0121e-19 -3.30507 
115 2 20.1668 2.0407 -4.24024 9.19476e-20 -3.31321 
116 2 2.01668 4.80541 -4.27744 4.00841e-20 -3.32495 
117 2 6.23339 7.57011 -4.31463 1.10015e-19 -3.32835 
118 2 10.4501 10.3348 -4.35183 9.99886e-20 -3.3244 
119 2 14.6668 13.0995 -4.38902 1.09988e-19 -3.31696 
120 2 18.8835 15.8642 -4.42622 1.20008e-19 -3.31168 
121 2 23.1002 18.6289 -4.46341 1.69978e-19 -3.30785 
122 2 27.3169 21.3937 -4.50061 9.06726e-20 -3.30599 
123 2 1.83335 1.7915 -4.5378 1.13703e-19 -3.30345 
124 2 6.05005 4.55621 -4.575 2.00004e-20 -3.29952 
125 2 10.2668 7.32092 -4.6122 1.00006e-19 -3.29645 
126 2 14.4835 10.0856 -4.64939 1.10003e-19 -3.29593 
127 2 18.7002 12.8503 -4.68659 1.30004e-19 -3.2983 
128 2 22.9169 15.615 -4.72378 9.00032e-20 -3.29891 
129 2 27.1336 18.3798 -4.76098 1.51734e-19 -3.2989 
130 2 8.98341 21.1445 -4.79817 1.02551e-19 -3.30429 
131 2 5.86672 1.54231 -4.83537 1.24737e-19 -3.29967 
132 2 10.0834 4.30702 -4.87256 1.00007e-19 -3.30148 
133 2 14.3001 7.07173 -4.90976 8.00192e-20 -3.30164 
134 2 18.5168 9.83643 -4.94695 9.0011e-20 -3.30164 
135 2 22.7335 12.6011 -4.98415 1.09997e-19 -3.30162 
136 2 26.9502 15.3658 -5.02134 8.00802e-20 -3.3016 
137 2 8.80007 18.1306 -5.05854 1.39998e-19 -3.3016 
138 2 13.0168 20.8953 -5.09573 1.29258e-19 -3.3016 
139 2 9.90008 1.29312 -5.13293 1.99577e-19 -3.3016 
140 2 14.1168 4.05782 -5.17012 1.29998e-19 -3.30161 
141 2 18.3335 6.82253 -5.20732 7.00085e-20 -3.30163 
142 2 22.5502 9.58724 -5.24451 8.99975e-20 -3.30162 
143 2 4.40004 12.3519 -5.28171 9.26106e-20 -3.30161 
144 2 8.61674 15.1167 -5.3189 7.00032e-20 -3.30163 
145 2 12.8334 17.8814 -5.3561 1.29999e-19 -3.30163 
146 2 17.0501 20.6461 -5.39329 1.59191e-19 -3.30161 
147 2 13.9335 1.04392 -5.43049 1.63977e-19 -3.3016 
148 2 18.1502 3.80863 -5.46768 1.40012e-19 -3.3016 
149 2 22.3669 6.57334 -5.50488 8.00293e-20 -3.3016 
150 2 4.2167 9.33804 -5.54207 1.08375e-19 -3.3016 
151 2 8.4334 12.1028 -5.57927 8.99855e-20 -3.30163 
152 2 12.6501 14.8675 -5.61646 4.99933e-20 -3.30164 
153 2 16.8668 17.6322 -5.65366 1.10003e-19 -3.30163 
154 2 21.0835 20.3969 -5.69085 1.5435e-19 -3.3016 
155 2 17.9668 0.794727 -5.72805 1.2158e-19 -3.30161 
156 2 22.1835 3.55943 -5.76524 1.38364e-19 -3.30161 
157 2 4.03337 6.32414 -5.80244 1.00038e-19 -3.3016 
158 2 8.25007 9.08885 -5.83963 1.29976e-19 -3.3016 
159 2 12.4668 11.8536 -5.87683 9.00011e-20 -3.3016 
160 2 16.6835 14.6183 -5.91402 9.00075e-20 -3.3016 
161 2 20.9002 17.383 -5.95122 6.99968e-20 -3.3016 
162 2 25.1169 20.1477 -5.98841 1.1195e-19 -3.3016 
163 2 22.0002 0.545533 -6.02561 9.4015e-20 -3.30167 
164 2 3.85003 3.31024 -6.0628 1.50007e-19 -3.30167 
165 2 8.06673 6.07495 -6.1 7.00057e-20 -3.30164 
166 2 12.2834 8.83966 -6.1372 1.39988e-19 -3.30163 
167 2 16.5001 11.6044 -6.17439 1.19997e-19 -3.30163 
168 2 20.7168 14.3691 -6.21159 1.10019e-19 -3.30163 
169 2 24.9335 17.1338 -6.24878 1.9995e-20 -3.30163 
170 2 6.78339 19.8985 -6.28598 9.91755e-20 -3.30163 
171 2 3.6667 0.296339 -6.32317 8.24105e-20 -3.30163 
172 2 7.8834 3.06105 -6.36037 1.60008e-19 -3.30163 
173 2 12.1001 5.82575 -6.39756 1.40005e-19 -3.30163 
174 2 16.3168 8.59046 -6.43476 1.1e-19 -3.30163 
175 2 20.5335 11.3552 -6.47195 1.30014e-19 -3.30163 
176 2 24.7502 14.1199 -6.50915 1.09216e-19 -3.30163 
177 2 6.60006 16.8846 -6.54634 6.00771e-20 -3.30163 
178 2 10.8168 19.6493 -6.58354 8.19534e-20 -3.30163 
179 2 7.70007 0.0471448 -6.62073 8.52124e-20 -3.30163 
180 2 11.9168 2.81185 -6.65793 1.24351e-19 -3.30163 
181 2 16.1335 5.57656 -6.69512 1.30014e-19 -3.30163 
182 2 20.3502 8.34127 -6.73232 9.99929e-20 -3.30163 
183 2 24.5669 11.106 -6.76951 1.41744e-19 -3.30163 
184 2 6.41672 13.8707 -6.80671 1.30882e-19 -3.30163 
185 2 10.6334 16.6354 -6.8439 6.99954e-20 -3.30163 
186 2 14.8501 19.4001 -6.8811 8.19621e-20 -3.30163 
187 2 19.0668 22.1648 -6.91829 1.22525e-19 -3.30163 
188 2 15.9501 2.56266 -6.95549 9.31795e-20 -3.30163 
189 2 20.1668 5.32737 -6.99268 1.19998e-19 -3.30163 
190 2 24.3835 8.09207 -7.02988 1.00086e-19 -3.30163 
191 2 6.23339 10.8568 -7.06707 1.40003e-19 -3.30163 
192 2 10.4501 13.6215 -7.10427 1.39999e-19 -3.30163 
193 2 14.6668 16.3862 -7.14146 1.00004e-19 -3.30163 
194 2 18.8835 19.1509 -7.17866 1.09998e-19 -3.30163 
195 2 23.1002 21.9156 -7.21585 9.6897e-20 -3.30163 
196 2 19.9835 2.31346 -7.25305 8.31416e-20 -3.30163 
197 2 1.83335 5.07817 -7.29024 1.13482e-19 -3.30163 
198 2 6.05005 7.84288 -7.32744 8.00071e-20 -3.30163 
199 2 10.2668 10.6076 -7.36463 1.49989e-19 -3.30163 
200 2 14.4835 13.3723 -7.40183 1.40003e-19 -3.30163 
201 2 18.7002 16.137 -7.43902 1.49983e-19 -3.30163 
202 2 22.9169 18.9017 -7.47622 7.00039e-20 -3.30163 
203 2 27.1336 21.6664 -7.51341 9.76337e-20 -3.30163 
204 2 1.65001 2.06427 -7.55061 6.15404e-20 -3.30163 
205 2 5.86672 4.82898 -7.5878 9.99901e-20 -3.30163 
206 2 10.0834 7.59369 -7.625 6.00029e-20 -3.30163 
207 2 14.3001 10.3584 -7.6622 1.19996e-19 -3.30163 
208 2 18.5168 13.1231 -7.69939 1.20009e-19 -3.30163 
209 2 22.7335 15.8878 -7.73659 1.49993e-19 -3.30163 
210 2 26.9502 18.6525 -7.77378 8.0059e-20 -3.30163 
211 2 8.80007 21.4172 -7.81098 1.05347e-19 -3.30163 
212 2 5.68338 1.81508 -7.84817 8.31571e-20 -3.30163 
213 2 9.90008 4.57978 -7.88537 1.19993e-19 -3.30163 
214 2 14.1168 7.34449 -7.92256 8.99926e-20 -3.30163 
215 2 18.3335 10.1092 -7.95976 7.00089e-20 -3.30163 
216 2 22.5502 12.8739 -7.99695 1.30006e-19 -3.30163 
217 2 26.7669 15.6386 -8.03415 1.37575e-19 -3.30163 
218 2 8.61674 18.4033 -8.07134 1.00016e-19 -3.30163 
219 2 12.8334 21.168 -8.10854 1.05586e-19 -3.30163 
220 2 9.71675 1.56588 -8.14573 9.59391e-20 -3.30163 
221 2 13.9335 4.33059 -8.18293 1.09999e-19 -3.30163 
222 2 18.1502 7.0953 -8.22012 9.00004e-20 -3.30163 
223 2 22.3669 9.86001 -8.25732 5.9995e-20 -3.30163 
224 2 4.2167 12.6247 -8.29451 1.06748e-19 -3.30163 
225 2 8.4334 15.3894 -8.33171 1.30008e-19 -3.30163 
226 2 12.6501 18.1541 -8.3689 9.99993e-20 -3.30163 
227 2 16.8668 20.9188 -8.4061 1.24457e-19 -3.30163 
228 2 13.7501 1.31669 -8.44329 1.1238e-19 -3.30163 
229 2 17.9668 4.0814 -8.48049 1.19989e-19 -3.30163 
230 2 22.1835 6.8461 -8.51768 1.00004e-19 -3.30163 
231 2 4.03337 9.61081 -8.55488 4.00552e-20 -3.30163 
232 2 8.25007 12.3755 -8.59207 9.99972e-20 -3.30163 
233 2 12.4668 15.1402 -8.62927 1.1002e-19 -3.30163 
234 2 16.6835 17.9049 -8.66646 1.19991e-19 -3.30163 
235 2 20.9002 20.6696 -8.70366 1.25593e-19 -3.30163 
236 2 17.7835 1.06749 -8.74085 1.13958e-19 -3.30163 
237 2 22.0002 3.8322 -8.77805 1.31732e-19 -3.30163 
238 2 3.85003 6.59691 -8.81524 1.1174e-19 -3.30163 
239 2 8.06673 9.36162 -8.85244 6.99918e-20 -3.30163 
240 2 12.2834 12.1263 -8.88963 9.00075e-20 -3.30163 
241 2 16.5001 14.891 -8.92683 1.00007e-19 -3.30163 
242 2 20.7168 17.6557 -8.96402 1.3e-19 -3.30163 
243 2 24.9335 20.4204 -9.00122 8.27831e-20 -3.30163 
244 2 21.8169 0.8183 -9.03841 1.14148e-19 -3.30163 
245 2 3.6667 3.58301 -9.07561 1.2001e-19 -3.30163 
246 2 7.8834 6.34772 -9.1128 1.59994e-19 -3.30163 
247 2 12.1001 9.11242 -9.15 6.99997e-20 -3.30163 
248 2 16.3168 11.8771 -9.1872 8.00071e-20 -3.30163 
249 2 20.5335 14.6418 -9.22439 7.00053e-20 -3.30163 
250 2 24.7502 17.4065 -9.26159 1.20004e-19 -3.30163 
251 2 28.9669 20.1713 -9.29878 6.24356e-20 -3.30163 
252 2 3.48336 0.569105 -9.33598 1.15576e-19 -3.30163 
253 2 7.70007 3.33381 -9.37317 1.09998e-19 -3.30163 
254 2 11.9168 6.09852 -9.41037 1.49995e-19 -3.30163 
255 2 16.1335 8.86323 -9.44756 1.30002e-19 -3.30163 
256 2 20.3502 11.6279 -9.48476 6.99961e-20 -3.30163 
257 2 24.5669 14.3926 -9.52195 9.00082e-20 -3.30163 
258 2 6.41672 17.1574 -9.55915 9.26113e-20 -3.30163 
259 2 10.6334 19.9221 -9.59634 7.19613e-20 -3.30163 
260 2 7.51673 0.319911 -9.63354 9.64072e-20 -3.30163 
261 2 11.7334 3.08462 -9.67073 9.99922e-20 -3.30163 
262 2 15.9501 5.84933 -9.70793 1.39979e-19 -3.30163 
263 2 20.1668 8.61403 -9.74512 1.39989e-19 -3.30163 
264 2 24.3835 11.3787 -9.78232 8.00581e-20 -3.30163 
265 2 6.23339 14.1435 -9.81951 1.08367e-19 -3.30163 
266 2 10.4501 16.9082 -9.85671 9.00018e-20 -3.30163 
267 2 14.6668 19.6729 -9.8939 6.19501e-20 -3.30163 
268 2 11.5501 0.0707173 -9.9311 7.9209e-20 -3.30163 
269 2 15.7668 2.83542 -9.96829 8.1931e-20 -3.30163 
270 2 19.9835 5.60013 -10.0055 1.39995e-19 -3.30163 
271 2 24.2002 8.36484 -10.0427 1.38397e-19 -3.30163 
272 2 6.05005 11.1295 -10.0799 1.00015e-19 -3.30163 
273 2 10.2668 13.8943 -10.1171 1.20014e-19 -3.30163 
274 2 14.4835 16.659 -10.1543 1.2999e-19 -3.30163 
275 2 18.7002 19.4237 -10.1915 8.31642e-20 -3.30163 
276 2 22.9169 22.1884 -10.2287 7.45814e-20 -3.30163 
277 2 19.8002 2.58623 -10.2659 7.19639e-20 -3.30163 
278 2 24.0169 5.35094 -10.303 1.33482e-19 -3.30163 
279 2 5.86672 8.11565 -10.3402 1.39996e-19 -3.30163 
280 2 10.0834 10.8804 -10.3774 1.30007e-19 -3.30163 
281 2 14.3001 13.6451 -10.4146 1.40001e-19 -3.30163 
282 2 18.5168 16.4098 -10.4518 1.00005e-19 -3.30163 
283 2 22.7335 19.1745 -10.489 1.1e-19 -3.30163 
284 2 26.9502 21.9392 -10.5262 2.97614e-20 -3.30163 
285 2 1.46668 2.33704 -10.5634 7.32549e-20 -3.30163 
286 2 5.68338 5.10174 -10.6006 9.00043e-20 -3.30163 
287 2 9.90008 7.86645 -10.6378 1.60012e-19 -3.30163 
288 2 14.1168 10.6312 -10.675 1.00004e-19 -3.30163 
289 2 18.3335 13.3959 -10.7122 1.09998e-19 -3.30163 
290 2 22.5502 16.1606 -10.7494 1.1e-19 -3.30163 
291 2 26.7669 18.9253 -10.7866 1.19186e-19 -3.30163 
292 2 8.61674 21.69 -10.8238 5.78781e-20 -3.30163 
293 2 5.50005 2.08784 -10.861 9.19368e-20 -3.30163 
294 2 9.71675 4.85255 -10.8982 4.99954e-20 -3.30163 
295 2 13.9335 7.61726 -10.9354 1.20021e-19 -3.30163 
296 2 18.1502 10.382 -10.9726 1.29999e-19 -3.30163 
297 2 22.3669 13.1467 -11.0098 1.00008e-19 -3.30163 
298 2 26.5836 15.9114 -11.047 1.41744e-19 -3.30163 
299 2 8.4334 18.6761 -11.0841 1.30877e-19 -3.30163 
300 2 12.6501 21.4408 -11.1213 8.88125e-20 -3.30163 
301 2 9.53341 1.83865 -11.1585 9.19533e-20 -3.30163 
302 2 13.7501 4.60336 -11.1957 4.00071e-20 -3.30163 
303 2 17.9668 7.36806 -11.2329 9.99947e-20 -3.30163 
304 2 22.1835 10.1328 -11.2701 1.20009e-19 -3.30163 
305 2 26.4002 12.8975 -11.3073 1.00095e-19 -3.30163 
306 2 8.25007 15.6622 -11.3445 1.40007e-19 -3.30163 
307 2 12.4668 18.4269 -11.3817 1.39991e-19 -3.30163 
308 2 16.6835 21.1916 -11.4189 1.10391e-19 -3.30163 
309 2 13.5668 1.58945 -11.4561 1.03914e-19 -3.30163 
310 2 17.7835 4.35416 -11.4933 5.99897e-20 -3.30163 
311 2 22.0002 7.11887 -11.5305 9.00053e-20 -3.30163 
312 2 3.85003 9.88358 -11.5677 1.12605e-19 -3.30163 
313 2 8.06673 12.6483 -11.6049 9.00068e-20 -3.30163 
314 2 12.2834 15.413 -11.6421 1.39995e-19 -3.30163 
315 2 16.5001 18.1777 -11.6793 1.60009e-19 -3.30163 
316 2 20.7168 20.9424 -11.7165 1.29262e-19 -3.30163 
317 2 17.6001 1.34026 -11.7537 1.10324e-19 -3.30163 
318 2 21.8169 4.10497 -11.7909 7.00395e-20 -3.30163 
319 2 3.6667 6.86968 -11.828 8.83858e-20 -3.30163 
320 2 7.8834 9.63438 -11.8652 1.10007e-19 -3.30163 
321 2 12.1001 12.3991 -11.9024 1.09994e-19 -3.30163 
322 2 16.3168 15.1638 -11.9396 1.00016e-19 -3.30163 
323 2 20.5335 17.9285 -11.9768 1.20001e-19 -3.30163 
324 2 24.7502 20.6932 -12.014 1.44585e-19 -3.30163 
325 2 21.6335 1.09107 -12.0512 1.02542e-19 -3.30163 
326 2 3.48336 3.85577 -12.0884 1.30865e-19 -3.30163 
327 2 7.70007 6.62048 -12.1256 8.00061e-20 -3.30163 
328 2 11.9168 9.38519 -12.1628 1.00004e-19 -3.30163 
329 2 16.1335 12.1499 -12.2 5.00018e-20 -3.30163 
330 2 20.3502 14.9146 -12.2372 8.00064e-20 -3.30163 
331 2 24.5669 17.6793 -12.2744 1.09977e-19 -3.30163 
332 2 28.7836 20.444 -12.3116 1.41929e-19 -3.30163 
333 2 3.30003 0.841872 -12.3488 1.86377e-19 -3.30163 
334 2 7.51673 3.60658 -12.386 1.49995e-19 -3.30163 
335 2 11.7334 6.37129 -12.4232 6.0005e-20 -3.30163 
336 2 15.9501 9.136 -12.4604 1.19994e-19 -3.30163 
337 2 20.1668 11.9007 -12.4976 9.00075e-20 -3.30163 
338 2 24.3835 14.6654 -12.5348 5.99894e-20 -3.30163 
339 2 6.23339 17.4301 -12.572 1.07579e-19 -3.30163 
340 2 10.4501 20.1948 -12.6091 1.34357e-19 -3.30163 
341 2 7.3334 0.592678 -12.6463 1.63966e-19 -3.30163 
342 2 11.5501 3.35739 -12.6835 1.4003e-19 -3.30163 
343 2 15.7668 6.12209 -12.7207 9.99936e-20 -3.30163 
344 2 19.9835 8.8868 -12.7579 1.20008e-19 -3.30163 
345 2 24.2002 11.6515 -12.7951 9.91962e-20 -3.30163 
346 2 6.05005 14.4162 -12.8323 4.0075e-20 -3.30163 
347 2 10.2668 17.1809 -12.8695 1.00001e-19 -3.30163 
348 2 14.4835 19.9456 -12.9067 1.44354e-19 -3.30163 
349 2 11.3668 0.343484 -12.9439 1.11603e-19 -3.30163 
350 2 15.5835 3.10819 -12.9811 1.39975e-19 -3.30163 
351 2 19.8002 5.8729 -13.0183 1.00005e-19 -3.30163 
352 2 24.0169 8.63761 -13.0555 1.31762e-19 -3.30163 
353 2 5.86672 11.4023 -13.0927 1.10886e-19 -3.30163 
354 2 10.0834 14.167 -13.1299 8.99954e-20 -3.30163 
355 2 14.3001 16.9317 -13.1671 6.99883e-20 -3.30163 
356 2 18.5168 19.6964 -13.2043 9.19673e-20 -3.30163 
357 2 15.4001 0.0942897 -13.2415 9.55537e-20 -3.30163 
358 2 19.6168 2.859 -13.2787 1.21117e-19 -3.30163 
359 2 23.8335 5.62371 -13.3159 1.09244e-19 -3.30163 
360 2 5.68338 8.38841 -13.353 1.40008e-19 -3.30163 
361 2 9.90008 11.1531 -13.3902 1.50002e-19 -3.30163 
362 2 14.1168 13.9178 -13.4274 1.10003e-19 -3.30163 
363 2 18.3335 16.6825 -13.4646 7.00025e-20 -3.30163 
364 2 22.5502 19.4472 -13.5018 6.19483e-20 -3.30163 
365 2 26.7669 22.212 -13.539 1.0144e-19 -3.30163 
366 2 1.28334 2.6098 -13.5762 1.05774e-19 -3.30163 
367 2 5.50005 5.37451 -13.6134 1.40008e-19 -3.30163 
368 2 9.71675 8.13922 -13.6506 9.00046e-20 -3.30163 
369 2 13.9335 10.9039 -13.6878 1.50007e-19 -3.30163 
370 2 18.1502 13.6686 -13.725 8.99997e-20 -3.30163 
371 2 22.3669 16.4333 -13.7622 7.99915e-20 -3.30163 
372 2 26.5836 19.198 -13.7994 7.08678e-20 -3.30163 
373 2 8.4334 21.9628 -13.8366 9.97476e-20 -3.30163 
374 2 5.31671 2.36061 -13.8738 9.43489e-20 -3.30163 
375 2 9.53341 5.12532 -13.911 1.29999e-19 -3.30163 
376 2 13.7501 7.89002 -13.9482 7.99918e-20 -3.30163 
377 2 17.9668 10.6547 -13.9854 1.5001e-19 -3.30163 
378 2 22.1835 13.4194 -14.0226 1.39999e-19 -3.30163 
379 2 26.4002 16.1841 -14.0598 8.00722e-20 -3.30163 
380 2 8.25007 18.9489 -14.097 1.09193e-19 -3.30163 
381 2 12.4668 21.7136 -14.1341 1.47698e-19 -3.30163 
382 2 9.35008 2.11142 -14.1713 8.31563e-20 -3.30163 
383 2 13.5668 4.87612 -14.2085 1.09991e-19 -3.30163 
384 2 17.7835 7.64083 -14.2457 8.00075e-20 -3.30163 
385 2 22.0002 10.4055 -14.2829 1.39996e-19 -3.30163 
386 2 26.2169 13.1702 -14.3201 1.37556e-19 -3.30163 
387 2 8.06673 15.935 -14.3573 1.0999e-19 -3.30163 
388 2 12.2834 18.6997 -14.3945 1.19995e-19 -3.30163 
389 2 16.5001 21.4644 -14.4317 1.06063e-19 -3.30163 
390 2 13.3834 1.86222 -14.4689 8.31521e-20 -3.30163 
391 2 17.6001 4.62693 -14.5061 9.00043e-20 -3.30163 
392 2 21.8169 7.39164 -14.5433 6.99947e-20 -3.30163 
393 2 3.6667 10.1563 -14.5805 1.27573e-19 -3.30163 
394 2 7.8834 12.9211 -14.6177 1.59984e-19 -3.30163 
395 2 12.1001 15.6858 -14.6549 1.40002e-19 -3.30163 
396 2 16.3168 18.4505 -14.6921 1.10007e-19 -3.30163 
397 2 20.5335 21.2152 -14.7293 9.64127e-20 -3.30163 
398 2 17.4168 1.61303 -14.7665 1.06314e-19 -3.30163 
399 2 21.6335 4.37773 -14.8037 8.91846e-20 -3.30163 
400 2 3.48336 7.14244 -14.8409 8.09202e-20 -3.30163 
401 2 7.70007 9.90715 -14.878 9.99908e-20 -3.30163 
402 2 11.9168 12.6719 -14.9152 1.30006e-19 -3.30163 
403 2 16.1335 15.4366 -14.9524 1.40011e-19 -3.30163 
404 2 20.3502 18.2013 -14.9896 1.09993e-19 -3.30163 
405 2 24.5669 20.966 -15.0268 9.44535e-20 -3.30163 
406 2 21.4502 1.36383 -15.064 1.27442e-19 -3.30163 
407 2 3.30003 4.12854 -15.1012 1.08355e-19 -3.30163 
408 2 7.51673 6.89325 -15.1384 9.99943e-20 -3.30163 
409 2 11.7334 9.65796 -15.1756 4e-20 -3.30163 
410 2 15.9501 12.4227 -15.2128 1.20001e-19 -3.30163 
411 2 20.1668 15.1874 -15.25 9.00053e-20 -3.30163 
412 2 24.3835 17.9521 -15.2872 1.10001e-19 -3.30163 
413 2 28.6002 20.7168 -15.3244 1.14739e-19 -3.30163 
414 2 3.11669 1.11464 -15.3616 1.27556e-19 -3.30163 
415 2 7.3334 3.87935 -15.3988 1.00003e-19 -3.30163 
416 2 11.5501 6.64405 -15.436 1.09985e-19 -3.30163 
417 2 15.7668 9.40876 -15.4732 2.00036e-20 -3.30163 
418 2 19.9835 12.1735 -15.5104 1.09995e-19 -3.30163 
419 2 24.2002 14.9382 -15.5476 1.20013e-19 -3.30163 
420 2 6.05005 17.7029 -15.5848 9.01178e-20 -3.30163 
421 2 10.2668 20.4676 -15.622 1.32783e-19 -3.30163 
422 2 7.15006 0.865444 -15.6591 1.15166e-19 -3.30163 
423 2 11.3668 3.63015 -15.6963 1.29972e-19 -3.30163 
424 2 15.5835 6.39486 -15.7335 1.10002e-19 -3.30163 
425 2 19.8002 9.15957 -15.7707 5.99979e-20 -3.30163 
426 2 24.0169 11.9243 -15.8079 9.08879e-20 -3.30163 
427 2 5.86672 14.689 -15.8451 1.1176e-19 -3.30163 
428 2 10.0834 17.4537 -15.8823 1.09994e-19 -3.30163 
429 2 14.3001 20.2184 -15.9195 1.22795e-19 -3.30163 
430 2 11.1834 0.61625 -15.9567 1.05568e-19 -3.30163 
431 2 15.4001 3.38096 -15.9939 1.40003e-19 -3.30163 
432 2 19.6168 6.14567 -16.0311 1.29988e-19 -3.30163 
433 2 23.8335 8.91037 -16.0683 7.92397e-20 -3.30163 
434 2 5.68338 11.6751 -16.1055 8.92048e-20 -3.30163 
435 2 9.90008 14.4398 -16.1427 1.09991e-19 -3.30163 
436 2 14.1168 17.2045 -16.1799 1.09978e-19 -3.30163 
437 2 18.3335 19.9692 -16.2171 8.1949e-20 -3.30163 
438 2 15.2168 0.367056 -16.2543 9.55821e-20 -3.30163 
439 2 19.4335 3.13176 -16.2915 1.39994e-19 -3.30163 
440 2 23.6502 5.89647 -16.3287 1.55892e-19 -3.30163 
441 2 5.50005 8.66118 -16.3659 1.30004e-19 -3.30163 
442 2 9.71675 11.4259 -16.403 7.99986e-20 -3.30163 
443 2 13.9335 14.1906 -16.4402 8.99982e-20 -3.30163 
444 2 18.1502 16.9553 -16.4774 8.99989e-20 -3.30163 
445 2 22.3669 19.72 -16.5146 8.1961e-20 -3.30163 
446 2 19.2502 0.117862 -16.5518 6.95668e-20 -3.30163 
447 2 1.10001 2.88257 -16.589 1.30282e-19 -3.30163 
448 2 5.31671 5.64728 -16.6262 1.20001e-19 -3.30163 
449 2 9.53341 8.41199 -16.6634 1.49988e-19 -3.30163 
450 2 13.7501 11.1767 -16.7006 5.99922e-20 -3.30163 
451 2 17.9668 13.9414 -16.7378 1.20015e-19 -3.30163 
452 2 22.1835 16.7061 -16.775 5.00018e-20 -3.30163 
453 2 26.4002 19.4708 -16.8122 6.19511e-20 -3.30163 
454 2 8.25007 22.2355 -16.8494 6.28212e-20 -3.30163 
455 2 5.13338 2.63338 -16.8866 9.19606e-20 -3.30163 
456 2 9.35008 5.39808 -16.9238 1.20002e-19 -3.30163 
457 2 13.5668 8.16279 -16.961 1.5e-19 -3.30163 
458 2 17.7835 10.9275 -16.9982 8.00007e-20 -3.30163 
459 2 22.0002 13.6922 -17.0354 1.30005e-19 -3.30163 
460 2 26.2169 16.4569 -17.0726 1.08377e-19 -3.30163 
461 2 8.06673 19.2216 -17.1098 6.08895e-20 -3.30163 
462 2 12.2834 21.9863 -17.147 8.14492e-20 -3.30163 
463 2 9.16674 2.38418 -17.1841 7.19461e-20 -3.30163 
464 2 13.3834 5.14889 -17.2213 1.3001e-19 -3.30163 
465 2 17.6001 7.9136 -17.2585 1.40008e-19 -3.30163 
466 2 21.8169 10.6783 -17.2957 9.99879e-20 -3.30163 
467 2 26.0336 13.443 -17.3329 1.32598e-19 -3.30163 
468 2 7.8834 16.2077 -17.3701 1.40856e-19 -3.30163 
469 2 12.1001 18.9724 -17.4073 1.00002e-19 -3.30163 
470 2 16.3168 21.7371 -17.4445 4.97628e-20 -3.30163 
471 2 13.2001 2.13499 -17.4817 5.19579e-20 -3.30163 
472 2 17.4168 4.8997 -17.5189 1.09999e-19 -3.30163 
473 2 21.6335 7.6644 -17.5561 1.29995e-19 -3.30163 
474 2 3.48336 10.4291 -17.5933 1.21794e-19 -3.30163 
475 2 7.70007 13.1938 -17.6305 1.29996e-19 -3.30163 
476 2 11.9168 15.9585 -17.6677 1.29998e-19 -3.30163 
477 2 16.1335 18.7232 -17.7049 1.09994e-19 -3.30163 
478 2 20.3502 21.4879 -17.7421 7.72643e-20 -3.30163 
479 2 17.2335 1.88579 -17.7793 5.19469e-20 -3.30163 
480 2 21.4502 4.6505 -17.8165 9.99996e-20 -3.30163 
481 2 3.30003 7.41521 -17.8537 1.26698e-19 -3.30163 
482 2 7.51673 10.1799 -17.8909 1.30013e-19 -3.30163 
483 2 11.7334 12.9446 -17.928 1.00012e-19 -3.30163 
484 2 15.9501 15.7093 -17.9652 1.39994e-19 -3.30163 
485 2 20.1668 18.474 -18.0024 1.30013e-19 -3.30163 
486 2 24.3835 21.2387 -18.0396 9.64086e-20 -3.30163 
487 2 21.2668 1.6366 -18.0768 5.27536e-20 -3.30163 
488 2 3.11669 4.40131 -18.114 5.92103e-20 -3.30163 
489 2 7.3334 7.16601 -18.1512 7.99975e-20 -3.30163 
490 2 11.5501 9.93072 -18.1884 1.29998e-19 -3.30163 
491 2 15.7668 12.6954 -18.2256 7.99986e-20 -3.30163 
492 2 19.9835 15.4601 -18.2628 1.50004e-19 -3.30163 
493 2 24.2002 18.2248 -18.3 9.99979e-20 -3.30163 
494 2 28.4169 20.9896 -18.3372 1.06e-19 -3.30163 
495 2 2.93336 1.38741 -18.3744 7.98847e-20 -3.30163 
496 2 7.15006 4.15211 -18.4116 6.99904e-20 -3.30163 
497 2 11.3668 6.91682 -18.4488 6.99915e-20 -3.30163 
498 2 15.5835 9.68153 -18.486 1.19979e-19 -3.30163 
499 2 19.8002 12.4462 -18.5232 6.00121e-20 -3.30163 
500 2 24.0169 15.2109 -18.5604 1.50019e-19 -3.30163 
501 2 28.2336 17.9757 -18.5976 1.36736e-19 -3.30163 
502 2 10.0834 20.7404 -18.6348 1.24642e-19 -3.30163 
503 2 6.96673 1.13821 -18.672 1.03115e-19 -3.30163 
504 2 11.1834 3.90292 -18.7091 7.00014e-20 -3.30163 
505 2 15.4001 6.66763 -18.7463 8.99954e-20 -3.30163 
506 2 19.6168 9.43233 -18.7835 8.99911e-20 -3.30163 
507 2 23.8335 12.197 -18.8207 7.00187e-20 -3.30163 
508 2 5.68338 14.9617 -18.8579 1.17559e-19 -3.30163 
509 2 9.90008 17.7265 -18.8951 1.60014e-19 -3.30163 
510 2 14.1168 20.4912 -18.9323 1.32311e-19 -3.30163 
511 2 11.0001 0.889017 -18.9695 1.23966e-19 -3.30163 
512 2 15.2168 3.65372 -19.0067 8.9992e-20 -3.30163 
513 2 19.4335 6.41843 -19.0439 1.10007e-19 -3.30163 
514 2 23.6502 9.18314 -19.0811 9.75322e-20 -3.30163 
515 2 5.50005 11.9478 -19.1183 8.08883e-20 -3.30163 
516 2 9.71675 14.7126 -19.1555 8.00064e-20 -3.30163 
517 2 13.9335 17.4773 -19.1927 1.29996e-19 -3.30163 
518 2 18.1502 20.242 -19.2299 1.33996e-19 -3.30163 
519 2 15.0335 0.639823 -19.2671 1.15575e-19 -3.30163 
520 2 19.2502 3.40453 -19.3043 1.00002e-19 -3.30163 
521 2 23.4669 6.16924 -19.3415 1.10907e-19 -3.30163 
522 2 5.31671 8.93395 -19.3787 1.19198e-19 -3.30163 
523 2 9.53341 11.6987 -19.4159 9.00018e-20 -3.30163 
524 2 13.7501 14.4634 -19.453 5.99965e-20 -3.30163 
525 2 17.9668 17.2281 -19.4902 1.10005e-19 -3.30163 
526 2 22.1835 19.9928 -19.5274 1.13143e-19 -3.30163 
527 2 19.0668 0.390629 -19.5646 1.25593e-19 -3.30163 
528 2 23.2835 3.15534 -19.6018 1.07583e-19 -3.30163 
529 2 5.13338 5.92004 -19.639 1.09987e-19 -3.30163 
530 2 9.35008 8.68475 -19.6762 9.99965e-20 -3.30163 
531 2 13.5668 11.4495 -19.7134 1.09986e-19 -3.30163 
532 2 17.7835 14.2142 -19.7506 2.00064e-20 -3.30163 
533 2 22.0002 16.9789 -19.7878 1.09994e-19 -3.30163 
534 2 26.2169 19.7436 -19.825 6.31563e-20 -3.30163 
535 2 0.73334 0.141435 -19.8622 1.73545e-19 -3.30163 
536 2 4.95004 2.90614 -19.8994 1.11115e-19 -3.30163 
537 2 9.16674 5.67085 -19.9366 1.10004e-19 -3.30163 
538 2 13.3834 8.43556 -19.9738 1.09996e-19 -3.30163 
539 2 17.6001 11.2003 -20.011 1.19995e-19 -3.30163 
540 2 21.8169 13.965 -20.0482 4.00043e-20 -3.30163 
541 2 26.0336 16.7297 -20.0854 9.08656e-20 -3.30163 
542 2 7.8834 19.4944 -20.1226 1.37781e-19 -3.30163 
543 2 12.1001 22.2591 -20.1598 1.02272e-19 -3.30163 
544 2 8.98341 2.65695 -20.197 1.21122e-19 -3.30163 
545 2 13.2001 5.42166 -20.2341 1.00022e-19 -3.30163 
546 2 17.4168 8.18636 -20.2713 1.39989e-19 -3.30163 
547 2 21.6335 10.9511 -20.3085 1.29977e-19 -3.30163 
548 2 25.8502 13.7158 -20.3457 7.92196e-20 -3.30163 
549 2 7.70007 16.4805 -20.3829 8.91994e-20 -3.30163 
550 2 11.9168 19.2452 -20.4201 8.99904e-20 -3.30163 
551 2 16.1335 22.0099 -20.4573 9.8291e-20 -3.30163 
552 2 13.0168 2.40775 -20.4945 1.01952e-19 -3.30163 
553 2 17.2335 5.17246 -20.5317 9.00096e-20 -3.30163 
554 2 21.4502 7.93717 -20.5689 1.3999e-19 -3.30163 
555 2 25.6669 10.7019 -20.6061 1.5507e-19 -3.30163 
556 2 7.51673 13.4666 -20.6433 1.30004e-19 -3.30163 
557 2 11.7334 16.2313 -20.6805 6.99968e-20 -3.30163 
558 2 15.9501 18.996 -20.7177 9.00103e-20 -3.30163 
559 2 20.1668 21.7607 -20.7549 6.57669e-20 -3.30163 
560 2 17.0501 2.15856 -20.7921 9.19327e-20 -3.30163 
561 2 21.2668 4.92327 -20.8293 8.99922e-20 -3.30163 
562 2 3.11669 7.68798 -20.8665 1.18418e-19 -3.30163 
563 2 7.3334 10.4527 -20.9037 1.40002e-19 -3.30163 
564 2 11.5501 13.2174 -20.9409 1.39998e-19 -3.30163 
565 2 15.7668 15.9821 -20.978 8.0005e-20 -3.30163 
566 2 19.9835 18.7468 -21.0152 1.09991e-19 -3.30163 
567 2 24.2002 21.5115 -21.0524 8.41017e-20 -3.30163 
568 2 21.0835 1.90937 -21.0896 1.10306e-19 -3.30163 
569 2 2.93336 4.67407 -21.1268 9.1755e-20 -3.30163 
570 2 7.15006 7.43878 -21.164 9.00089e-20 -3.30163 
571 2 11.3668 10.2035 -21.2012 1.20005e-19 -3.30163 
572 2 15.5835 12.9682 -21.2384 1.49999e-19 -3.30163 