LAMMPS (7 Aug 2019)

# ------------------Variables ---------------------
# Minimization Parameters -------------------------
variable Etol equal 1e-25
variable Ftol equal 1e-25
variable MaxIter equal 5000
variable MaxEval equal 10000
variable Infn equal -10000000000
variable Inf equal 10000000000

# ------------------------------------------------
variable LatParam equal 4.05

# ------------------------------------------------
variable GBname index /home/leila/Leila_sndhard/codes/gbmc_python/gbmc_v0/gbmc_v0/gbmc_v0/in.minimize
variable cnt equal 1

# ------------------------------------------------
variable OverLap equal 1.43


# ---------- Deletion Criterion --------------
#variable e equal 1


# -----------Initializing the Simulation-----------
clear
units metal
dimension 3
boundary p p f
atom_style atomic

# ---------Creating the Atomistic Structure--------
lattice fcc ${LatParam}
lattice fcc 4.05
Lattice spacing in x,y,z = 4.05 4.05 4.05
region whole prism -1.61864957e-15  2.97002515e+01 0.00000000e+00  2.23668561e+01 -1.01250000e+02  1.01250000e+02 7.33339543e+00 -1.61864957e-15 1.08925055e-15
create_box 2 whole
Created triclinic box = (-6.55553e-15 0 -410.062) to (120.286 90.5858 410.062) with tilt (29.7003 -6.55553e-15 4.41146e-15)
  1 by 1 by 1 MPI processor grid

region lower prism -1.61864957e-15  2.97002515e+01 0.00000000e+00  2.23668561e+01 -1.01250000e+02  0.0 7.33339543e+00 -1.61864957e-15 1.08925055e-15

region upper prism -1.61864957e-15  2.97002515e+01 0.00000000e+00  2.23668561e+01 0.0 1.01250000e+02 7.33339543e+00 -1.61864957e-15 1.08925055e-15

group lower type 2
0 atoms in group lower
group upper type 1
0 atoms in group upper


read_dump /home/leila/Leila_sndhard/codes/gbmc_python/gbmc_v0/gbmc_v0/gbmc_v0/tests/data/dump_1 0 x y z box yes add yes
  triclinic box = (0 0 -101.25) to (22.3669 22.3669 101.25) with tilt (7.3334 -1.61865e-15 1.08925e-15)
  0 atoms before read
  5447 atoms in snapshot
  0 atoms purged
  0 atoms replaced
  0 atoms trimmed
  5447 atoms added
  5447 atoms after read

# -------Defining the potential functions----------
pair_style eam/alloy
pair_coeff * * Al99.eam.alloy Al Al

#delete_atoms overlap ${OverLap}  all all
delete_atoms overlap ${OverLap}  upper lower
delete_atoms overlap 1.43  upper lower
Neighbor list info ...
  update every 1 steps, delay 10 steps, check yes
  max neighbors/atom: 2000, page size: 100000
  master list distance cutoff = 8.28721
  ghost atom cutoff = 8.28721
  binsize = 4.1436, bins = 8 6 49
  2 neighbor lists, perpetual/occasional/extra = 1 1 0
  (1) command delete_atoms, occasional
      attributes: full, newton on
      pair build: full/bin/atomonly
      stencil: full/bin/3d
      bin: standard
  (2) pair eam/alloy, perpetual
      attributes: half, newton on
      pair build: half/bin/newton/tri
      stencil: half/bin/3d/newton/tri
      bin: standard
Deleted 1 atoms, new total = 5446

neighbor 2 bin
neigh_modify delay 10 check yes

# ---------Computing Simulation Parameters---------
compute csym all centro/atom fcc
compute eng all pe/atom
compute eatoms all reduce sum c_eng
compute MinAtomEnergy all reduce min c_eng

# ------1st Minimization:Relaxing the bi-crystal------
reset_timestep 0
thermo 10
thermo_style custom step pe lx ly lz xy xz yz xlo xhi ylo yhi zlo zhi press pxx pyy pzz c_eatoms c_MinAtomEnergy
thermo_modify lost ignore
dump 1 all custom 10 dump0.${cnt} id type x y z c_csym c_eng
dump 1 all custom 10 dump0.1 id type x y z c_csym c_eng
min_style cg
minimize ${Etol} ${Ftol} ${MaxIter} ${MaxEval}
minimize 1e-25 ${Ftol} ${MaxIter} ${MaxEval}
minimize 1e-25 1e-25 ${MaxIter} ${MaxEval}
minimize 1e-25 1e-25 5000 ${MaxEval}
minimize 1e-25 1e-25 5000 10000
WARNING: Using 'neigh_modify every 1 delay 0 check yes' setting during minimization (../min.cpp:168)
Neighbor list info ...
  update every 1 steps, delay 0 steps, check yes
  max neighbors/atom: 2000, page size: 100000
  master list distance cutoff = 8.28721
  ghost atom cutoff = 8.28721
  binsize = 4.1436, bins = 8 6 49
  2 neighbor lists, perpetual/occasional/extra = 1 1 0
  (1) pair eam/alloy, perpetual
      attributes: half, newton on
      pair build: half/bin/newton/tri
      stencil: half/bin/3d/newton/tri
      bin: standard
  (2) compute centro/atom, occasional
      attributes: full, newton on
      pair build: full/bin/atomonly
      stencil: full/bin/3d
      bin: standard
Per MPI rank memory allocation (min/avg/max) = 16.35 | 16.35 | 16.35 Mbytes
Step PotEng Lx Ly Lz Xy Xz Yz Xlo Xhi Ylo Yhi Zlo Zhi Press Pxx Pyy Pzz c_eatoms c_MinAtomEnergy 
       0         -nan    22.366856    22.366856        202.5    7.3333954 -1.6186496e-15 1.0892506e-15            0    22.366856            0    22.366856      -101.25       101.25         -nan         -nan         -nan         -nan         -nan   -3.3759978 
       1         -nan    22.366856    22.366856        202.5    7.3333954 -1.6186496e-15 1.0892506e-15            0    22.366856            0    22.366856      -101.25       101.25         -nan         -nan         -nan         -nan         -nan   -3.3759978 
Loop time of 9.21998 on 1 procs for 1 steps with 5446 atoms

100.0% CPU use with 1 MPI tasks x no OpenMP threads

Minimization stats:
  Stopping criterion = linesearch alpha is zero
  Energy initial, next-to-last, final = 
                  -nan               -nan               -nan
  Force two-norm initial, final = -nan -nan
  Force max component initial, final = 29.6677 29.6677
  Final line search alpha, max atom move = 0 0
  Iterations, force evaluations = 1 1068

MPI task timing breakdown:
Section |  min time  |  avg time  |  max time  |%varavg| %total
---------------------------------------------------------------
Pair    | 9.071      | 9.071      | 9.071      |   0.0 | 98.38
Neigh   | 0          | 0          | 0          |   0.0 |  0.00
Comm    | 0.049808   | 0.049808   | 0.049808   |   0.0 |  0.54
Output  | 0          | 0          | 0          |   0.0 |  0.00
Modify  | 0          | 0          | 0          |   0.0 |  0.00
Other   |            | 0.09914    |            |       |  1.08

Nlocal:    5446 ave 5446 max 5446 min
Histogram: 1 0 0 0 0 0 0 0 0 0
Nghost:    11436 ave 11436 max 11436 min
Histogram: 1 0 0 0 0 0 0 0 0 0
Neighs:    361432 ave 361432 max 361432 min
Histogram: 1 0 0 0 0 0 0 0 0 0
FullNghs:  722864 ave 722864 max 722864 min
Histogram: 1 0 0 0 0 0 0 0 0 0

Total # of neighbors = 722864
Ave neighs/atom = 132.733
Neighbor list builds = 0
Dangerous builds = 0
undump 1
# -----------------Dumping Outputs-----------------
reset_timestep 0
timestep 0.001
thermo 10
thermo_style custom step pe lx ly lz press pxx pyy pzz c_eatoms
WARNING: New thermo_style command, previous thermo_modify settings will be lost (../output.cpp:708)
thermo_modify lost ignore
dump 1 all custom 10 dump.${cnt} id type x y z c_csym c_eng
dump 1 all custom 10 dump.1 id type x y z c_csym c_eng
run 0
WARNING: No fixes defined, atoms won't move (../verlet.cpp:52)
Per MPI rank memory allocation (min/avg/max) = 14.1 | 14.1 | 14.1 Mbytes
Step PotEng Lx Ly Lz Press Pxx Pyy Pzz c_eatoms 
       0         -nan    22.366856    22.366856        202.5         -nan         -nan         -nan         -nan         -nan 
Loop time of 1.19209e-06 on 1 procs for 0 steps with 5446 atoms

167.8% CPU use with 1 MPI tasks x no OpenMP threads

MPI task timing breakdown:
Section |  min time  |  avg time  |  max time  |%varavg| %total
---------------------------------------------------------------
Pair    | 0          | 0          | 0          |   0.0 |  0.00
Neigh   | 0          | 0          | 0          |   0.0 |  0.00
Comm    | 0          | 0          | 0          |   0.0 |  0.00
Output  | 0          | 0          | 0          |   0.0 |  0.00
Modify  | 0          | 0          | 0          |   0.0 |  0.00
Other   |            | 1.192e-06  |            |       |100.00

Nlocal:    5446 ave 5446 max 5446 min
Histogram: 1 0 0 0 0 0 0 0 0 0
Nghost:    11436 ave 11436 max 11436 min
Histogram: 1 0 0 0 0 0 0 0 0 0
Neighs:    361432 ave 361432 max 361432 min
Histogram: 1 0 0 0 0 0 0 0 0 0
FullNghs:  722864 ave 722864 max 722864 min
Histogram: 1 0 0 0 0 0 0 0 0 0

Total # of neighbors = 722864
Ave neighs/atom = 132.733
Neighbor list builds = 0
Dangerous builds = 0
undump 1



Total wall time: 0:00:09
