ITEM: TIMESTEP
0
ITEM: NUMBER OF ATOMS
4098
ITEM: BOX BOUNDS pp ff pp
0.0000000000000000e+00 1.2222000000000000e+01
-1.2237985218999999e+02 1.2237985218999999e+02
0.0000000000000000e+00 2.3225373408999999e+01
ITEM: ATOMS id type x y z c_csym c_eng 
257 1 4.07189 -118.296 3.73976 0.00970269 -3.43609 
263 1 2.03489 -119.883 2.48398 7.51988 -3.30503 
265 1 4.07189 -121.084 4.06534 30.7877 -2.89158 
267 1 4.07189 -121.403 1.20749 30.9161 -2.89072 
383 1 4.07189 -118.621 0.878136 0.00641302 -3.43704 
266 1 6.10889 -119.883 2.48398 7.51988 -3.30503 
253 1 12.2199 -118.296 3.73976 0.00970268 -3.43609 
262 1 12.2199 -121.084 4.06534 30.7877 -2.89158 
264 1 12.2199 -121.403 1.20749 30.9161 -2.89072 
382 1 12.2199 -118.621 0.878136 0.00641301 -3.43704 
261 1 8.14589 -118.296 3.73976 0.00970268 -3.43609 
268 1 8.14589 -121.084 4.06534 30.7877 -2.89158 
269 1 10.1829 -119.883 2.48398 7.51988 -3.30503 
270 1 8.14589 -121.403 1.20749 30.9161 -2.89072 
384 1 8.14589 -118.621 0.878136 0.00641302 -3.43704 
371 1 2.03489 -117.035 2.12894 0.000938785 -3.44482 
372 1 2.03489 -114.173 1.76888 0.000194507 -3.44429 
374 1 4.07189 -115.434 3.37784 0.00123539 -3.44509 
377 1 4.07189 -115.768 0.517113 0.000522885 -3.44506 
375 1 6.10889 -117.035 2.12894 0.000938788 -3.44482 
376 1 6.10889 -114.173 1.76888 0.000194506 -3.44429 
8 1 4.07189 -112.913 0.15965 0.000267904 -3.44385 
359 1 2.03489 -113.825 4.62655 0.00191017 -3.44519 
363 1 6.10889 -113.825 4.62655 0.00191017 -3.44519 
370 1 12.2199 -115.434 3.37784 0.00123539 -3.44509 
373 1 12.2199 -115.768 0.517113 0.00052288 -3.44506 
378 1 8.14589 -115.434 3.37784 0.00123539 -3.44509 
379 1 10.1829 -117.035 2.12894 0.000938783 -3.44482 
380 1 10.1829 -114.173 1.76888 0.000194507 -3.44429 
381 1 8.14589 -115.768 0.517113 0.000522882 -3.44506 
7 1 12.2199 -112.913 0.15965 0.000267904 -3.44385 
9 1 8.14589 -112.913 0.15965 0.000267904 -3.44385 
367 1 10.1829 -113.825 4.62655 0.00191017 -3.44519 
360 1 2.03489 -110.959 4.26922 0.000509203 -3.44462 
365 1 4.07189 -112.569 3.01955 0.00056812 -3.4446 
488 1 2.03489 -111.312 1.41142 7.39658e-05 -3.44418 
490 1 4.07189 -109.706 2.66216 0.000218914 -3.44441 
476 1 2.03489 -108.097 3.91233 0.00015235 -3.44437 
489 1 2.03489 -108.452 1.05428 2.57013e-05 -3.44415 
364 1 6.10889 -110.959 4.26922 0.000509204 -3.44462 
491 1 6.10889 -111.312 1.41142 7.39653e-05 -3.44418 
480 1 6.10889 -108.097 3.91233 0.000152349 -3.44437 
492 1 6.10889 -108.452 1.05428 2.5701e-05 -3.44415 
361 1 12.2199 -112.569 3.01955 0.000568119 -3.4446 
487 1 12.2199 -109.706 2.66216 0.000218913 -3.44441 
368 1 10.1829 -110.959 4.26922 0.0005092 -3.44462 
369 1 8.14589 -112.569 3.01955 0.000568118 -3.4446 
493 1 8.14589 -109.706 2.66216 0.000218912 -3.44441 
494 1 10.1829 -111.312 1.41142 7.39658e-05 -3.44418 
484 1 10.1829 -108.097 3.91233 0.000152348 -3.44437 
495 1 10.1829 -108.452 1.05428 2.57008e-05 -3.44415 
477 1 2.03489 -105.236 3.55557 4.74833e-05 -3.44424 
482 1 4.07189 -106.845 2.30508 7.59451e-05 -3.44428 
602 1 2.03489 -105.592 0.697332 8.13745e-06 -3.44411 
603 1 4.07189 -103.984 1.94819 2.48164e-05 -3.44419 
481 1 6.10889 -105.236 3.55557 4.74825e-05 -3.44424 
604 1 6.10889 -105.592 0.697332 8.13744e-06 -3.44411 
478 1 12.2199 -106.845 2.30508 7.59455e-05 -3.44428 
601 1 12.2199 -103.984 1.94819 2.48169e-05 -3.44419 
485 1 10.1829 -105.236 3.55557 4.74828e-05 -3.44424 
486 1 8.14589 -106.845 2.30508 7.59442e-05 -3.44428 
606 1 10.1829 -105.592 0.697332 8.13749e-06 -3.44411 
605 1 8.14589 -103.984 1.94819 2.48164e-05 -3.44419 
590 1 2.03489 -102.375 3.19888 1.47928e-05 -3.44416 
596 1 4.07189 -101.124 1.5914 7.76081e-06 -3.44414 
88 1 2.03489 -102.733 0.340511 2.38987e-06 -3.44409 
593 1 4.07189 -100.766 4.44964 1.83649e-06 -3.44409 
591 1 2.03489 -99.5156 2.84221 4.48167e-06 -3.44412 
716 1 4.07189 -98.2648 1.23468 2.32696e-06 -3.4441 
594 1 6.10889 -102.375 3.19888 1.47931e-05 -3.44416 
91 1 6.10889 -102.733 0.340511 2.38988e-06 -3.44409 
595 1 6.10889 -99.5156 2.84221 4.48192e-06 -3.44412 
584 1 4.07189 -97.9063 4.09307 5.85931e-07 -3.44408 
592 1 12.2199 -101.124 1.5914 7.76101e-06 -3.44414 
589 1 12.2199 -100.766 4.44964 1.83646e-06 -3.44409 
715 1 12.2199 -98.2648 1.23468 2.32684e-06 -3.4441 
598 1 10.1829 -102.375 3.19888 1.47933e-05 -3.44416 
600 1 8.14589 -101.124 1.5914 7.76091e-06 -3.44414 
94 1 10.1829 -102.733 0.340511 2.38981e-06 -3.44409 
597 1 8.14589 -100.766 4.44964 1.83663e-06 -3.44409 
599 1 10.1829 -99.5156 2.84221 4.4821e-06 -3.44412 
717 1 8.14589 -98.2648 1.23468 2.32701e-06 -3.4441 
580 1 12.2199 -97.9063 4.09307 5.85909e-07 -3.44408 
588 1 8.14589 -97.9063 4.09307 5.85971e-07 -3.44408 
158 1 2.03489 -121.861 8.55142 35.5618 -2.76699 
159 1 2.03489 -119.116 8.2034 0.0446763 -3.41006 
164 1 4.07189 -120.763 6.92991 15.444 -3.11319 
251 1 2.03489 -119.57 5.36149 6.96027 -3.33078 
254 1 4.07189 -117.932 6.58724 0.00890712 -3.44237 
162 1 6.10889 -121.861 8.55142 35.5618 -2.76699 
163 1 6.10889 -119.116 8.2034 0.0446763 -3.41006 
255 1 6.10889 -119.57 5.36149 6.96027 -3.33078 
160 1 12.2199 -120.763 6.92991 15.444 -3.11319 
250 1 12.2199 -117.932 6.58724 0.00890713 -3.44237 
166 1 10.1829 -121.861 8.55142 35.5618 -2.76699 
167 1 10.1829 -119.116 8.2034 0.0446763 -3.41006 
168 1 8.14589 -120.763 6.92991 15.444 -3.11319 
259 1 10.1829 -119.57 5.36149 6.96027 -3.33078 
258 1 8.14589 -117.932 6.58724 0.00890713 -3.44237 
252 1 2.03489 -116.698 4.98587 0.00921031 -3.447 
239 1 2.03489 -116.291 7.83584 0.00755893 -3.44267 
242 1 4.07189 -114.685 9.08986 0.00173933 -3.44321 
245 1 4.07189 -115.067 6.23012 0.00110842 -3.44462 
240 1 2.03489 -113.442 7.48113 0.00124931 -3.44305 
256 1 6.10889 -116.698 4.98587 0.00921031 -3.447 
243 1 6.10889 -116.291 7.83584 0.00755894 -3.44267 
244 1 6.10889 -113.442 7.48113 0.00124932 -3.44305 
238 1 12.2199 -114.685 9.08986 0.00173932 -3.44321 
241 1 12.2199 -115.067 6.23012 0.00110843 -3.44462 
260 1 10.1829 -116.698 4.98587 0.00921031 -3.447 
246 1 8.14589 -114.685 9.08986 0.00173932 -3.44321 
247 1 10.1829 -116.291 7.83584 0.00755893 -3.44267 
249 1 8.14589 -115.067 6.23012 0.00110842 -3.44462 
248 1 10.1829 -113.442 7.48113 0.00124931 -3.44305 
233 1 4.07189 -111.833 8.73364 0.000669608 -3.44344 
347 1 2.03489 -110.588 7.12569 0.000288257 -3.44363 
362 1 4.07189 -112.205 5.87495 0.000232634 -3.44424 
353 1 4.07189 -109.344 5.51894 6.22479e-05 -3.44416 
350 1 4.07189 -108.978 8.37745 0.000255819 -3.44371 
351 1 6.10889 -110.588 7.12569 0.000288258 -3.44363 
348 1 2.03489 -107.731 6.76974 8.25272e-05 -3.44386 
352 1 6.10889 -107.731 6.76974 8.25268e-05 -3.44386 
229 1 12.2199 -111.833 8.73364 0.000669606 -3.44344 
358 1 12.2199 -112.205 5.87495 0.000232634 -3.44424 
349 1 12.2199 -109.344 5.51894 6.22473e-05 -3.44416 
346 1 12.2199 -108.978 8.37745 0.000255819 -3.44371 
237 1 8.14589 -111.833 8.73364 0.000669605 -3.44344 
355 1 10.1829 -110.588 7.12569 0.000288255 -3.44363 
366 1 8.14589 -112.205 5.87495 0.000232635 -3.44424 
357 1 8.14589 -109.344 5.51894 6.22471e-05 -3.44416 
354 1 8.14589 -108.978 8.37745 0.000255818 -3.44371 
356 1 10.1829 -107.731 6.76974 8.25253e-05 -3.44386 
470 1 4.07189 -103.625 4.80618 5.85332e-06 -3.4441 
341 1 4.07189 -106.122 8.02115 9.95393e-05 -3.44385 
479 1 4.07189 -106.484 5.16263 1.87098e-05 -3.44413 
464 1 2.03489 -104.873 6.4135 2.76717e-05 -3.44396 
467 1 4.07189 -103.264 7.66474 4.00215e-05 -3.44394 
468 1 6.10889 -104.873 6.4135 2.76713e-05 -3.44396 
336 1 2.03489 -104.515 9.2727 4.68037e-05 -3.44394 
340 1 6.10889 -104.515 9.2727 4.68038e-05 -3.44394 
466 1 12.2199 -103.625 4.80618 5.85325e-06 -3.4441 
474 1 8.14589 -103.625 4.80618 5.85342e-06 -3.4441 
337 1 12.2199 -106.122 8.02115 9.95387e-05 -3.44385 
475 1 12.2199 -106.484 5.16263 1.87101e-05 -3.44413 
463 1 12.2199 -103.264 7.66474 4.00207e-05 -3.44394 
345 1 8.14589 -106.122 8.02115 9.9539e-05 -3.44385 
483 1 8.14589 -106.484 5.16263 1.871e-05 -3.44413 
472 1 10.1829 -104.873 6.4135 2.76707e-05 -3.44396 
471 1 8.14589 -103.264 7.66474 4.00208e-05 -3.44394 
344 1 10.1829 -104.515 9.2727 4.68037e-05 -3.44394 
452 1 2.03489 -101.657 8.9161 2.16356e-05 -3.44398 
465 1 2.03489 -102.015 6.05709 1.04677e-05 -3.44401 
453 1 2.03489 -98.7985 8.55947 9.86429e-06 -3.44401 
458 1 4.07189 -100.406 7.30824 1.66797e-05 -3.44398 
578 1 2.03489 -99.1562 5.70059 4.36271e-06 -3.44403 
456 1 6.10889 -101.657 8.9161 2.1635e-05 -3.44398 
469 1 6.10889 -102.015 6.05709 1.0468e-05 -3.44401 
457 1 6.10889 -98.7985 8.55947 9.86461e-06 -3.44401 
582 1 6.10889 -99.1562 5.70059 4.36263e-06 -3.44403 
454 1 12.2199 -100.406 7.30824 1.66797e-05 -3.44398 
460 1 10.1829 -101.657 8.9161 2.16349e-05 -3.44398 
473 1 10.1829 -102.015 6.05709 1.04677e-05 -3.44401 
461 1 10.1829 -98.7985 8.55947 9.86456e-06 -3.44401 
462 1 8.14589 -100.406 7.30824 1.66797e-05 -3.44398 
586 1 10.1829 -99.1562 5.70059 4.36266e-06 -3.44403 
152 1 4.07189 -117.535 9.45 0.00509655 -3.44401 
161 1 4.07189 -120.372 9.7986 7.38437 -3.29976 
80 1 4.07189 -120.049 12.6625 7.48362 -3.3049 
85 1 2.03489 -121.572 11.3921 31.0334 -2.89035 
146 1 2.03489 -118.791 11.0594 0.00607713 -3.43725 
86 1 6.10889 -121.572 11.3921 31.0334 -2.89035 
150 1 6.10889 -118.791 11.0594 0.00607713 -3.43725 
75 1 2.03489 -118.455 13.9199 0.00603016 -3.43567 
79 1 6.10889 -118.455 13.9199 0.00603016 -3.43567 
148 1 12.2199 -117.535 9.45 0.00509655 -3.44401 
156 1 8.14589 -117.535 9.45 0.00509654 -3.44401 
157 1 12.2199 -120.372 9.7986 7.38437 -3.29976 
76 1 12.2199 -120.049 12.6625 7.48362 -3.3049 
165 1 8.14589 -120.372 9.7986 7.38437 -3.29976 
84 1 8.14589 -120.049 12.6625 7.48362 -3.3049 
87 1 10.1829 -121.572 11.3921 31.0334 -2.89035 
154 1 10.1829 -118.791 11.0594 0.00607713 -3.43725 
83 1 10.1829 -118.455 13.9199 0.00603016 -3.43567 
134 1 2.03489 -115.6 13.5613 0.000139359 -3.44439 
140 1 4.07189 -114.342 11.9519 5.16408e-05 -3.44431 
147 1 2.03489 -115.939 10.7 0.000404036 -3.44536 
149 1 4.07189 -117.202 12.3115 0.000903179 -3.44587 
135 1 2.03489 -112.741 13.2034 2.49108e-05 -3.44404 
227 1 2.03489 -113.084 10.3425 0.000301235 -3.44394 
138 1 6.10889 -115.6 13.5613 0.00013936 -3.44439 
151 1 6.10889 -115.939 10.7 0.000404034 -3.44536 
139 1 6.10889 -112.741 13.2034 2.49108e-05 -3.44404 
231 1 6.10889 -113.084 10.3425 0.000301232 -3.44394 
136 1 12.2199 -114.342 11.9519 5.16405e-05 -3.44431 
145 1 12.2199 -117.202 12.3115 0.000903178 -3.44587 
142 1 10.1829 -115.6 13.5613 0.00013936 -3.44439 
144 1 8.14589 -114.342 11.9519 5.16404e-05 -3.44431 
153 1 8.14589 -117.202 12.3115 0.000903179 -3.44587 
155 1 10.1829 -115.939 10.7 0.000404036 -3.44536 
143 1 10.1829 -112.741 13.2034 2.49108e-05 -3.44404 
235 1 10.1829 -113.084 10.3425 0.000301235 -3.44394 
215 1 2.03489 -109.882 12.8462 1.80549e-05 -3.44408 
228 1 2.03489 -110.229 9.98587 0.000185985 -3.44388 
230 1 4.07189 -111.484 11.5947 3.7268e-05 -3.44407 
221 1 4.07189 -108.626 11.2377 3.00966e-05 -3.44402 
219 1 6.10889 -109.882 12.8462 1.80549e-05 -3.44408 
232 1 6.10889 -110.229 9.98587 0.000185985 -3.44388 
226 1 12.2199 -111.484 11.5947 3.72684e-05 -3.44407 
217 1 12.2199 -108.626 11.2377 3.0097e-05 -3.44402 
223 1 10.1829 -109.882 12.8462 1.80548e-05 -3.44408 
234 1 8.14589 -111.484 11.5947 3.72683e-05 -3.44407 
236 1 10.1829 -110.229 9.98587 0.000185987 -3.44388 
225 1 8.14589 -108.626 11.2377 3.0097e-05 -3.44402 
335 1 2.03489 -107.372 9.62929 9.73124e-05 -3.4439 
209 1 4.07189 -105.417 13.7402 3.65712e-05 -3.44416 
216 1 2.03489 -107.022 12.4892 1.08884e-05 -3.44409 
338 1 4.07189 -105.767 10.8809 1.8603e-05 -3.44402 
323 1 2.03489 -104.162 12.1322 5.62997e-06 -3.44408 
329 1 4.07189 -102.909 10.5241 1.00284e-05 -3.44402 
339 1 6.10889 -107.372 9.62929 9.73123e-05 -3.4439 
220 1 6.10889 -107.022 12.4892 1.08887e-05 -3.44409 
327 1 6.10889 -104.162 12.1322 5.62998e-06 -3.44408 
205 1 12.2199 -105.417 13.7402 3.6572e-05 -3.44416 
334 1 12.2199 -105.767 10.8809 1.86034e-05 -3.44402 
325 1 12.2199 -102.909 10.5241 1.00288e-05 -3.44402 
343 1 10.1829 -107.372 9.62929 9.73126e-05 -3.4439 
213 1 8.14589 -105.417 13.7402 3.65716e-05 -3.44416 
224 1 10.1829 -107.022 12.4892 1.08885e-05 -3.44409 
342 1 8.14589 -105.767 10.8809 1.86029e-05 -3.44402 
331 1 10.1829 -104.162 12.1322 5.62992e-06 -3.44408 
333 1 8.14589 -102.909 10.5241 1.00285e-05 -3.44402 
324 1 2.03489 -101.303 11.7753 2.70599e-06 -3.44408 
326 1 4.07189 -102.556 13.3832 1.73928e-05 -3.44413 
317 1 4.07189 -99.6961 13.0263 7.92954e-06 -3.44411 
440 1 2.03489 -98.4435 11.4185 1.26527e-06 -3.44407 
455 1 4.07189 -100.05 10.1674 5.05782e-06 -3.44403 
328 1 6.10889 -101.303 11.7753 2.70594e-06 -3.44408 
444 1 6.10889 -98.4435 11.4185 1.26527e-06 -3.44407 
322 1 12.2199 -102.556 13.3832 1.73937e-05 -3.44413 
313 1 12.2199 -99.6961 13.0263 7.9298e-06 -3.44411 
451 1 12.2199 -100.05 10.1674 5.05817e-06 -3.44403 
330 1 8.14589 -102.556 13.3832 1.73938e-05 -3.44413 
332 1 10.1829 -101.303 11.7753 2.70595e-06 -3.44408 
321 1 8.14589 -99.6961 13.0263 7.92992e-06 -3.44411 
448 1 10.1829 -98.4435 11.4185 1.26521e-06 -3.44407 
459 1 8.14589 -100.05 10.1674 5.05809e-06 -3.44403 
74 1 2.03489 -121.239 14.2522 30.5862 -2.89008 
26 1 4.07189 -119.397 18.4042 6.97441 -3.33093 
31 1 2.03489 -120.913 17.1087 30.7466 -2.8918 
62 1 2.03489 -118.125 16.7818 0.00929312 -3.43611 
77 1 4.07189 -119.713 15.5269 7.53785 -3.30485 
78 1 6.10889 -121.239 14.2522 30.5862 -2.89008 
32 1 6.10889 -120.913 17.1087 30.7466 -2.8918 
66 1 6.10889 -118.125 16.7818 0.00929312 -3.43611 
22 1 12.2199 -119.397 18.4042 6.97441 -3.33093 
73 1 12.2199 -119.713 15.5269 7.53785 -3.30485 
82 1 10.1829 -121.239 14.2522 30.5862 -2.89008 
30 1 8.14589 -119.397 18.4042 6.97441 -3.33093 
33 1 10.1829 -120.913 17.1087 30.7466 -2.8918 
70 1 10.1829 -118.125 16.7818 0.00929312 -3.43611 
81 1 8.14589 -119.713 15.5269 7.53785 -3.30485 
63 1 2.03489 -115.262 16.4207 0.00103559 -3.44491 
65 1 4.07189 -116.525 18.0282 0.00875973 -3.44697 
68 1 4.07189 -116.865 15.1716 0.000780829 -3.44429 
137 1 4.07189 -114.001 14.8124 0.000172058 -3.44401 
56 1 4.07189 -113.652 17.6694 0.00174535 -3.44511 
67 1 6.10889 -115.262 16.4207 0.00103559 -3.44491 
61 1 12.2199 -116.525 18.0282 0.00875972 -3.44697 
64 1 12.2199 -116.865 15.1716 0.000780826 -3.44429 
133 1 12.2199 -114.001 14.8124 0.000172057 -3.44401 
52 1 12.2199 -113.652 17.6694 0.00174535 -3.44511 
69 1 8.14589 -116.525 18.0282 0.00875972 -3.44697 
71 1 10.1829 -115.262 16.4207 0.00103559 -3.44491 
72 1 8.14589 -116.865 15.1716 0.000780828 -3.44429 
141 1 8.14589 -114.001 14.8124 0.000172056 -3.44401 
60 1 8.14589 -113.652 17.6694 0.00174535 -3.44511 
218 1 4.07189 -108.278 14.0973 7.12168e-05 -3.44417 
122 1 2.03489 -112.397 16.0626 0.000529926 -3.44451 
123 1 2.03489 -109.533 15.7051 0.000245242 -3.44436 
125 1 4.07189 -110.786 17.312 0.000470404 -3.44457 
128 1 4.07189 -111.139 14.4546 0.000121448 -3.44414 
116 1 4.07189 -107.923 16.955 0.000153506 -3.44433 
126 1 6.10889 -112.397 16.0626 0.000529924 -3.44451 
127 1 6.10889 -109.533 15.7051 0.000245242 -3.44436 
110 1 2.03489 -109.17 18.5616 5.66469e-05 -3.44413 
114 1 6.10889 -109.17 18.5616 5.66468e-05 -3.44413 
214 1 12.2199 -108.278 14.0973 7.1217e-05 -3.44417 
222 1 8.14589 -108.278 14.0973 7.12176e-05 -3.44417 
121 1 12.2199 -110.786 17.312 0.000470405 -3.44457 
124 1 12.2199 -111.139 14.4546 0.000121448 -3.44414 
112 1 12.2199 -107.923 16.955 0.000153505 -3.44433 
129 1 8.14589 -110.786 17.312 0.000470405 -3.44457 
130 1 10.1829 -112.397 16.0626 0.000529924 -3.44451 
131 1 10.1829 -109.533 15.7051 0.000245242 -3.44436 
132 1 8.14589 -111.139 14.4546 0.000121448 -3.44414 
120 1 8.14589 -107.923 16.955 0.000153505 -3.44433 
118 1 10.1829 -109.17 18.5616 5.66473e-05 -3.44413 
111 1 2.03489 -106.31 18.2052 1.87361e-05 -3.4441 
203 1 2.03489 -106.671 15.3479 0.000108282 -3.44426 
206 1 4.07189 -105.061 16.5982 5.69588e-05 -3.44421 
191 1 2.03489 -103.45 17.8487 7.29023e-06 -3.44408 
204 1 2.03489 -103.809 14.9909 4.73197e-05 -3.44419 
115 1 6.10889 -106.31 18.2052 1.87358e-05 -3.4441 
207 1 6.10889 -106.671 15.3479 0.000108283 -3.44426 
195 1 6.10889 -103.45 17.8487 7.28997e-06 -3.44408 
208 1 6.10889 -103.809 14.9909 4.73199e-05 -3.44419 
202 1 12.2199 -105.061 16.5982 5.69581e-05 -3.44421 
119 1 10.1829 -106.31 18.2052 1.87358e-05 -3.4441 
211 1 10.1829 -106.671 15.3479 0.000108284 -3.44426 
210 1 8.14589 -105.061 16.5982 5.69586e-05 -3.44421 
199 1 10.1829 -103.45 17.8487 7.29005e-06 -3.44408 
212 1 10.1829 -103.809 14.9909 4.73203e-05 -3.44419 
197 1 4.07189 -102.2 16.2414 2.31247e-05 -3.44415 
311 1 2.03489 -100.948 14.634 2.0745e-05 -3.44415 
312 1 2.03489 -98.0882 14.2772 9.16436e-06 -3.44412 
192 1 2.03489 -100.59 17.4921 3.25909e-06 -3.44408 
314 1 4.07189 -99.3396 15.8847 1.00155e-05 -3.44412 
315 1 6.10889 -100.948 14.634 2.0745e-05 -3.44415 
316 1 6.10889 -98.0882 14.2772 9.16421e-06 -3.44412 
196 1 6.10889 -100.59 17.4921 3.25904e-06 -3.44408 
193 1 12.2199 -102.2 16.2414 2.31246e-05 -3.44415 
310 1 12.2199 -99.3396 15.8847 1.00156e-05 -3.44412 
201 1 8.14589 -102.2 16.2414 2.31243e-05 -3.44415 
319 1 10.1829 -100.948 14.634 2.07454e-05 -3.44415 
320 1 10.1829 -98.0882 14.2772 9.16479e-06 -3.44412 
200 1 10.1829 -100.59 17.4921 3.25915e-06 -3.44408 
318 1 8.14589 -99.3396 15.8847 1.00153e-05 -3.44412 
1 1 2.03489 -120.2 22.8424 7.38978 -3.30001 
4 1 4.07189 -121.688 21.5929 35.5327 -2.76715 
20 1 2.03489 -120.59 19.9729 15.464 -3.11326 
23 1 4.07189 -118.943 21.2466 0.0459378 -3.41018 
21 1 2.03489 -117.759 19.6296 0.00868845 -3.4424 
3 1 6.10889 -120.2 22.8424 7.38978 -3.30001 
24 1 6.10889 -120.59 19.9729 15.464 -3.11326 
25 1 6.10889 -117.759 19.6296 0.00868845 -3.4424 
2 1 12.2199 -121.688 21.5929 35.5327 -2.76715 
19 1 12.2199 -118.943 21.2466 0.0459378 -3.41018 
5 1 10.1829 -120.2 22.8424 7.38978 -3.30001 
6 1 8.14589 -121.688 21.5929 35.5327 -2.76715 
27 1 8.14589 -118.943 21.2466 0.0459378 -3.41018 
28 1 10.1829 -120.59 19.9729 15.464 -3.11326 
29 1 10.1829 -117.759 19.6296 0.00868845 -3.4424 
10 1 2.03489 -117.364 22.4927 0.00554586 -3.44384 
11 1 2.03489 -114.513 22.1323 0.00190963 -3.44312 
15 1 4.07189 -116.118 20.8782 0.00800085 -3.44262 
50 1 2.03489 -114.894 19.2726 0.00103523 -3.44456 
53 1 4.07189 -113.269 20.5237 0.00135851 -3.44299 
13 1 6.10889 -117.364 22.4927 0.00554586 -3.44384 
14 1 6.10889 -114.513 22.1323 0.00190962 -3.44312 
54 1 6.10889 -114.894 19.2726 0.00103523 -3.44456 
12 1 12.2199 -116.118 20.8782 0.00800085 -3.44262 
49 1 12.2199 -113.269 20.5237 0.00135851 -3.44299 
16 1 10.1829 -117.364 22.4927 0.00554586 -3.44384 
17 1 10.1829 -114.513 22.1323 0.00190962 -3.44312 
18 1 8.14589 -116.118 20.8782 0.00800085 -3.44262 
58 1 10.1829 -114.894 19.2726 0.00103523 -3.44456 
57 1 8.14589 -113.269 20.5237 0.00135851 -3.44299 
51 1 2.03489 -112.031 18.9176 0.000209952 -3.4442 
38 1 2.03489 -111.66 21.7762 0.000684001 -3.44338 
41 1 4.07189 -110.056 23.0282 0.000120722 -3.44387 
44 1 4.07189 -110.414 20.1683 0.000310098 -3.44359 
39 1 2.03489 -108.805 21.4199 0.000230763 -3.44368 
55 1 6.10889 -112.031 18.9176 0.000209952 -3.4442 
42 1 6.10889 -111.66 21.7762 0.000683998 -3.44338 
43 1 6.10889 -108.805 21.4199 0.000230762 -3.44368 
37 1 12.2199 -110.056 23.0282 0.000120722 -3.44387 
40 1 12.2199 -110.414 20.1683 0.000310098 -3.44359 
59 1 10.1829 -112.031 18.9176 0.000209952 -3.4442 
45 1 8.14589 -110.056 23.0282 0.000120722 -3.44387 
46 1 10.1829 -111.66 21.7762 0.000683997 -3.44338 
48 1 8.14589 -110.414 20.1683 0.000310099 -3.44359 
47 1 10.1829 -108.805 21.4199 0.000230762 -3.44368 
35 1 4.07189 -107.198 22.6715 4.72861e-05 -3.44392 
98 1 2.03489 -105.947 21.0635 7.52369e-05 -3.44384 
113 1 4.07189 -107.557 19.8122 8.16166e-05 -3.44383 
99 1 2.03489 -103.089 20.707 2.39695e-05 -3.44394 
101 1 4.07189 -104.34 22.3148 1.71207e-05 -3.44397 
104 1 4.07189 -104.699 19.4559 2.28009e-05 -3.44394 
102 1 6.10889 -105.947 21.0635 7.52361e-05 -3.44384 
103 1 6.10889 -103.089 20.707 2.39694e-05 -3.44394 
34 1 12.2199 -107.198 22.6715 4.7287e-05 -3.44392 
109 1 12.2199 -107.557 19.8122 8.16167e-05 -3.44383 
97 1 12.2199 -104.34 22.3148 1.71214e-05 -3.44397 
100 1 12.2199 -104.699 19.4559 2.28008e-05 -3.44394 
36 1 8.14589 -107.198 22.6715 4.7287e-05 -3.44392 
106 1 10.1829 -105.947 21.0635 7.52371e-05 -3.44384 
117 1 8.14589 -107.557 19.8122 8.16161e-05 -3.44383 
105 1 8.14589 -104.34 22.3148 1.71215e-05 -3.44397 
107 1 10.1829 -103.089 20.707 2.39699e-05 -3.44394 
108 1 8.14589 -104.699 19.4559 2.2801e-05 -3.44394 
89 1 2.03489 -99.8731 23.2091 6.44947e-07 -3.44408 
92 1 6.10889 -99.8731 23.2091 6.44953e-07 -3.44408 
185 1 4.07189 -98.9804 18.7429 1.73407e-06 -3.44403 
93 1 4.07189 -101.481 21.9581 5.87565e-06 -3.44401 
194 1 4.07189 -101.84 19.0994 6.39017e-06 -3.444 
179 1 2.03489 -100.23 20.3504 7.41811e-06 -3.44399 
182 1 4.07189 -98.622 21.6014 1.9177e-06 -3.44403 
183 1 6.10889 -100.23 20.3504 7.41798e-06 -3.44399 
95 1 10.1829 -99.8731 23.2091 6.44895e-07 -3.44408 
96 1 8.14589 -101.481 21.9581 5.87607e-06 -3.44401 
198 1 8.14589 -101.84 19.0994 6.39028e-06 -3.444 
178 1 12.2199 -98.622 21.6014 1.91782e-06 -3.44403 
186 1 8.14589 -98.622 21.6014 1.91779e-06 -3.44403 
187 1 10.1829 -100.23 20.3504 7.41831e-06 -3.44399 
181 1 12.2199 -98.9804 18.7429 1.73403e-06 -3.44403 
189 1 8.14589 -98.9804 18.7429 1.73398e-06 -3.44403 
90 1 12.2199 -101.481 21.9581 5.87606e-06 -3.44401 
190 1 12.2199 -101.84 19.0994 6.39018e-06 -3.444 
704 1 2.03489 -96.656 2.48555 1.29256e-06 -3.4441 
705 1 2.03489 -93.7967 2.1289 3.51069e-07 -3.44408 
707 1 4.07189 -95.0471 3.73646 2.08862e-07 -3.44407 
710 1 4.07189 -95.4053 0.87799 6.68135e-07 -3.44409 
708 1 6.10889 -96.656 2.48555 1.29274e-06 -3.4441 
709 1 6.10889 -93.7967 2.1289 3.51162e-07 -3.44408 
703 1 12.2199 -95.0471 3.73646 2.08853e-07 -3.44407 
706 1 12.2199 -95.4053 0.87799 6.68039e-07 -3.44409 
712 1 10.1829 -96.656 2.48555 1.2929e-06 -3.4441 
711 1 8.14589 -95.0471 3.73646 2.08877e-07 -3.44407 
713 1 10.1829 -93.7967 2.1289 3.51159e-07 -3.44408 
714 1 8.14589 -95.4053 0.87799 6.68198e-07 -3.44409 
827 1 4.07189 -92.546 0.521317 1.86744e-07 -3.44408 
698 1 4.07189 -92.1879 3.37984 9.4748e-08 -3.44407 
818 1 2.03489 -90.9373 1.77225 9.25666e-08 -3.44407 
820 1 4.07189 -89.3287 3.02321 5.26963e-08 -3.44406 
821 1 6.10889 -90.9373 1.77225 9.25881e-08 -3.44407 
278 1 4.07189 -89.6866 0.164653 5.56455e-08 -3.44407 
693 1 2.03489 -90.5793 4.63082 4.67494e-07 -3.44405 
697 1 6.10889 -90.5793 4.63082 4.67564e-07 -3.44405 
826 1 12.2199 -92.546 0.521317 1.86678e-07 -3.44408 
694 1 12.2199 -92.1879 3.37984 9.47282e-08 -3.44407 
817 1 12.2199 -89.3287 3.02321 5.2699e-08 -3.44406 
828 1 8.14589 -92.546 0.521317 1.8672e-07 -3.44408 
702 1 8.14589 -92.1879 3.37984 9.47356e-08 -3.44407 
823 1 8.14589 -89.3287 3.02321 5.2711e-08 -3.44406 
824 1 10.1829 -90.9373 1.77225 9.25908e-08 -3.44407 
274 1 12.2199 -89.6866 0.164653 5.56212e-08 -3.44407 
282 1 8.14589 -89.6866 0.164653 5.56424e-08 -3.44407 
701 1 10.1829 -90.5793 4.63082 4.67552e-07 -3.44405 
819 1 2.03489 -88.0781 1.4156 2.75976e-08 -3.44407 
806 1 2.03489 -87.7202 4.27419 2.31926e-07 -3.44406 
807 1 2.03489 -84.8611 3.91755 1.08934e-07 -3.44406 
812 1 4.07189 -86.4695 2.66657 2.90778e-08 -3.44406 
935 1 2.03489 -85.2188 1.05895 1.20087e-08 -3.44406 
937 1 4.07189 -83.6103 2.30992 1.2364e-08 -3.44406 
822 1 6.10889 -88.0781 1.4156 2.76063e-08 -3.44407 
810 1 6.10889 -87.7202 4.27419 2.32009e-07 -3.44406 
811 1 6.10889 -84.8611 3.91755 1.09021e-07 -3.44406 
938 1 6.10889 -85.2188 1.05895 1.20175e-08 -3.44406 
808 1 12.2199 -86.4695 2.66657 2.9064e-08 -3.44406 
934 1 12.2199 -83.6103 2.30992 1.23541e-08 -3.44406 
825 1 10.1829 -88.0781 1.4156 2.75948e-08 -3.44407 
814 1 10.1829 -87.7202 4.27419 2.31934e-07 -3.44406 
815 1 10.1829 -84.8611 3.91755 1.08976e-07 -3.44406 
816 1 8.14589 -86.4695 2.66657 2.90709e-08 -3.44406 
941 1 10.1829 -85.2188 1.05895 1.20105e-08 -3.44406 
940 1 8.14589 -83.6103 2.30992 1.2365e-08 -3.44406 
923 1 2.03489 -82.0019 3.5609 4.36939e-08 -3.44406 
929 1 4.07189 -80.7511 1.95327 2.54042e-09 -3.44406 
936 1 2.03489 -82.3596 0.702297 8.69839e-09 -3.44406 
385 1 2.03489 -79.5004 0.345642 1.16602e-08 -3.44406 
924 1 2.03489 -79.1427 3.20425 1.1362e-08 -3.44406 
927 1 6.10889 -82.0019 3.5609 4.37074e-08 -3.44406 
939 1 6.10889 -82.3596 0.702297 8.69928e-09 -3.44406 
387 1 6.10889 -79.5004 0.345642 1.16489e-08 -3.44406 
928 1 6.10889 -79.1427 3.20425 1.13776e-08 -3.44406 
925 1 12.2199 -80.7511 1.95327 2.53813e-09 -3.44406 
931 1 10.1829 -82.0019 3.5609 4.36968e-08 -3.44406 
933 1 8.14589 -80.7511 1.95327 2.541e-09 -3.44406 
942 1 10.1829 -82.3596 0.702297 8.70257e-09 -3.44406 
389 1 10.1829 -79.5004 0.345642 1.16576e-08 -3.44406 
932 1 10.1829 -79.1427 3.20425 1.13586e-08 -3.44406 
917 1 4.07189 -77.5343 4.45524 2.6705e-08 -3.44406 
1037 1 2.03489 -76.2835 2.8476 1.04937e-09 -3.44406 
1049 1 4.07189 -77.8919 1.59662 2.23381e-09 -3.44406 
1043 1 4.07189 -75.0327 1.23997 1.50934e-08 -3.44406 
1040 1 4.07189 -74.6751 4.09858 1.04772e-08 -3.44406 
1041 1 6.10889 -76.2835 2.8476 1.0517e-09 -3.44406 
913 1 12.2199 -77.5343 4.45524 2.66958e-08 -3.44406 
1048 1 12.2199 -77.8919 1.59662 2.23621e-09 -3.44406 
1039 1 12.2199 -75.0327 1.23997 1.5103e-08 -3.44406 
1036 1 12.2199 -74.6751 4.09858 1.04792e-08 -3.44406 
921 1 8.14589 -77.5343 4.45524 2.67157e-08 -3.44406 
1045 1 10.1829 -76.2835 2.8476 1.05139e-09 -3.44406 
1050 1 8.14589 -77.8919 1.59662 2.23338e-09 -3.44406 
1047 1 8.14589 -75.0327 1.23997 1.50933e-08 -3.44406 
1044 1 8.14589 -74.6751 4.09858 1.04844e-08 -3.44406 
581 1 4.07189 -97.5476 6.95169 7.20441e-06 -3.44401 
692 1 2.03489 -93.4384 4.98744 9.42352e-07 -3.44405 
579 1 2.03489 -96.2973 5.34404 1.96767e-06 -3.44404 
566 1 2.03489 -95.9398 8.20284 4.50893e-06 -3.44403 
567 1 2.03489 -93.0809 7.84619 2.08949e-06 -3.44404 
572 1 4.07189 -94.6889 6.5951 3.21993e-06 -3.44403 
696 1 6.10889 -93.4384 4.98744 9.42493e-07 -3.44405 
583 1 6.10889 -96.2973 5.34404 1.96778e-06 -3.44404 
570 1 6.10889 -95.9398 8.20284 4.50935e-06 -3.44403 
571 1 6.10889 -93.0809 7.84619 2.08956e-06 -3.44404 
577 1 12.2199 -97.5476 6.95169 7.20424e-06 -3.44401 
568 1 12.2199 -94.6889 6.5951 3.21965e-06 -3.44403 
585 1 8.14589 -97.5476 6.95169 7.20492e-06 -3.44401 
700 1 10.1829 -93.4384 4.98744 9.42298e-07 -3.44405 
587 1 10.1829 -96.2973 5.34404 1.96769e-06 -3.44404 
574 1 10.1829 -95.9398 8.20284 4.50949e-06 -3.44403 
575 1 10.1829 -93.0809 7.84619 2.08956e-06 -3.44404 
576 1 8.14589 -94.6889 6.5951 3.22002e-06 -3.44403 
560 1 4.07189 -91.4731 9.09726 6.0937e-07 -3.44405 
680 1 2.03489 -90.2219 7.48953 9.88951e-07 -3.44405 
683 1 4.07189 -88.6139 8.74057 3.17321e-07 -3.44406 
686 1 4.07189 -88.971 5.88184 6.98925e-07 -3.44405 
695 1 4.07189 -91.83 6.23848 1.48331e-06 -3.44404 
684 1 6.10889 -90.2219 7.48953 9.88926e-07 -3.44405 
556 1 12.2199 -91.4731 9.09726 6.09351e-07 -3.44405 
679 1 12.2199 -88.6139 8.74057 3.17279e-07 -3.44406 
682 1 12.2199 -88.971 5.88184 6.98846e-07 -3.44405 
691 1 12.2199 -91.83 6.23848 1.48322e-06 -3.44404 
564 1 8.14589 -91.4731 9.09726 6.09242e-07 -3.44405 
687 1 8.14589 -88.6139 8.74057 3.17254e-07 -3.44406 
688 1 10.1829 -90.2219 7.48953 9.88896e-07 -3.44405 
690 1 8.14589 -88.971 5.88184 6.9895e-07 -3.44405 
699 1 8.14589 -91.83 6.23848 1.48335e-06 -3.44404 
674 1 4.07189 -85.7547 8.38388 1.75697e-07 -3.44406 
681 1 2.03489 -87.3628 7.13287 4.80478e-07 -3.44405 
794 1 2.03489 -84.5036 6.7762 2.40542e-07 -3.44406 
809 1 4.07189 -86.1119 5.5252 3.31918e-07 -3.44405 
685 1 6.10889 -87.3628 7.13287 4.80498e-07 -3.44405 
798 1 6.10889 -84.5036 6.7762 2.40554e-07 -3.44406 
800 1 4.07189 -83.2527 5.16855 1.54886e-07 -3.44406 
670 1 12.2199 -85.7547 8.38388 1.7567e-07 -3.44406 
805 1 12.2199 -86.1119 5.5252 3.31898e-07 -3.44405 
678 1 8.14589 -85.7547 8.38388 1.7567e-07 -3.44406 
689 1 10.1829 -87.3628 7.13287 4.80527e-07 -3.44405 
802 1 10.1829 -84.5036 6.7762 2.40531e-07 -3.44406 
813 1 8.14589 -86.1119 5.5252 3.31968e-07 -3.44405 
796 1 12.2199 -83.2527 5.16855 1.54907e-07 -3.44406 
804 1 8.14589 -83.2527 5.16855 1.54923e-07 -3.44406 
926 1 4.07189 -80.3935 4.81189 6.81171e-08 -3.44406 
788 1 4.07189 -80.0361 7.67052 7.12879e-08 -3.44406 
795 1 2.03489 -81.6444 6.41954 1.24564e-07 -3.44406 
797 1 4.07189 -82.8954 8.0272 1.05918e-07 -3.44406 
783 1 2.03489 -78.4278 8.92148 3.55018e-08 -3.44407 
911 1 2.03489 -78.7852 6.06287 6.74434e-08 -3.44406 
799 1 6.10889 -81.6444 6.41954 1.24559e-07 -3.44406 
787 1 6.10889 -78.4278 8.92148 3.55043e-08 -3.44407 
915 1 6.10889 -78.7852 6.06287 6.73929e-08 -3.44406 
782 1 2.03489 -81.2872 9.27817 3.62518e-08 -3.44407 
786 1 6.10889 -81.2872 9.27817 3.6252e-08 -3.44407 
922 1 12.2199 -80.3935 4.81189 6.81418e-08 -3.44406 
930 1 8.14589 -80.3935 4.81189 6.81431e-08 -3.44406 
784 1 12.2199 -80.0361 7.67052 7.12914e-08 -3.44406 
793 1 12.2199 -82.8954 8.0272 1.0591e-07 -3.44406 
792 1 8.14589 -80.0361 7.67052 7.12518e-08 -3.44406 
801 1 8.14589 -82.8954 8.0272 1.05906e-07 -3.44406 
803 1 10.1829 -81.6444 6.41954 1.24559e-07 -3.44406 
791 1 10.1829 -78.4278 8.92148 3.54992e-08 -3.44407 
919 1 10.1829 -78.7852 6.06287 6.74579e-08 -3.44406 
790 1 10.1829 -81.2872 9.27817 3.62497e-08 -3.44407 
899 1 2.03489 -75.5684 8.56479 4.2431e-08 -3.44407 
912 1 2.03489 -75.9259 5.70621 3.9408e-08 -3.44406 
914 1 4.07189 -77.1768 7.31384 5.46422e-08 -3.44406 
905 1 4.07189 -74.3175 6.95717 4.82072e-08 -3.44406 
903 1 6.10889 -75.5684 8.56479 4.24213e-08 -3.44407 
916 1 6.10889 -75.9259 5.70621 3.9385e-08 -3.44406 
910 1 12.2199 -77.1768 7.31384 5.46695e-08 -3.44406 
901 1 12.2199 -74.3175 6.95717 4.81933e-08 -3.44406 
907 1 10.1829 -75.5684 8.56479 4.24378e-08 -3.44407 
918 1 8.14589 -77.1768 7.31384 5.46331e-08 -3.44406 
920 1 10.1829 -75.9259 5.70621 3.93904e-08 -3.44406 
909 1 8.14589 -74.3175 6.95717 4.81846e-08 -3.44406 
569 1 4.07189 -94.3323 9.45395 1.21783e-06 -3.44405 
443 1 4.07189 -96.8362 12.6695 3.53413e-06 -3.4441 
446 1 4.07189 -97.1913 9.81066 2.48298e-06 -3.44404 
434 1 4.07189 -93.9765 12.3127 1.55299e-06 -3.44409 
441 1 2.03489 -95.5841 11.0617 5.91812e-07 -3.44407 