ITEM: TIMESTEP
0
ITEM: NUMBER OF ATOMS
5694
ITEM: BOX BOUNDS pp ff pp
0.0000000000000000e+00 1.2222000000000000e+01
-1.2226080109000000e+02 1.2226080109000000e+02
0.0000000000000000e+00 3.2207797968999998e+01
ITEM: ATOMS id type x y z c_csym c_eng 
347 1 4.08852 -121.589 4.08971 30.933 -2.89197 
482 1 2.05152 -120.461 2.44416 7.41771 -3.30013 
497 1 4.08852 -122.01 1.26886 35.4002 -2.76731 
485 1 4.08852 -118.825 3.61701 0.0116746 -3.43729 
343 1 0.0145225 -121.589 4.08971 30.933 -2.89197 
493 1 0.0145225 -122.01 1.26886 35.4002 -2.76731 
481 1 0.0145225 -118.825 3.61701 0.0116746 -3.43729 
488 1 4.08852 -119.287 0.779459 0.0481772 -3.40985 
484 1 0.0145225 -119.287 0.779459 0.0481772 -3.40985 
483 1 2.05152 -117.647 1.93685 0.00510051 -3.44266 
486 1 6.12552 -120.461 2.44416 7.41771 -3.30013 
351 1 8.16252 -121.589 4.08971 30.933 -2.89197 
490 1 10.1995 -120.461 2.44416 7.41771 -3.30013 
501 1 8.16252 -122.01 1.26886 35.4002 -2.76731 
489 1 8.16252 -118.825 3.61701 0.0116746 -3.43729 
492 1 8.16252 -119.287 0.779459 0.0481772 -3.40985 
487 1 6.12552 -117.647 1.93685 0.00510054 -3.44266 
491 1 10.1995 -117.647 1.93685 0.00510052 -3.44266 
476 1 4.08852 -115.989 3.09598 0.000835453 -3.44572 
638 1 2.05152 -114.819 1.41831 0.00112906 -3.44312 
472 1 0.0145225 -115.989 3.09598 0.000835453 -3.44572 
471 1 2.05152 -114.319 4.25477 0.00187314 -3.44549 
641 1 4.08852 -113.152 2.57962 0.000175495 -3.44444 
637 1 0.0145226 -113.152 2.57962 0.000175496 -3.44444 
653 1 4.08852 -116.486 0.254904 0.00772002 -3.44235 
649 1 0.0145224 -116.486 0.254904 0.00772002 -3.44235 
642 1 6.12552 -114.819 1.41831 0.00112907 -3.44312 
480 1 8.16252 -115.989 3.09598 0.000835456 -3.44572 
646 1 10.1995 -114.819 1.41831 0.00112907 -3.44312 
475 1 6.12552 -114.319 4.25477 0.00187316 -3.44549 
479 1 10.1995 -114.319 4.25477 0.00187313 -3.44549 
645 1 8.16252 -113.152 2.57962 0.000175497 -3.44444 
657 1 8.16252 -116.486 0.254904 0.00772001 -3.44235 
626 1 2.05152 -111.479 3.73914 0.000356722 -3.44468 
632 1 4.08852 -110.317 2.06438 3.29237e-05 -3.44421 
628 1 0.0145226 -110.317 2.06438 3.29243e-05 -3.44421 
627 1 2.05152 -108.643 3.22424 6.84091e-05 -3.44434 
639 1 2.05152 -111.988 0.903652 0.000255589 -3.44352 
809 1 2.05152 -109.155 0.389168 5.30746e-05 -3.44382 
630 1 6.12552 -111.479 3.73914 0.000356725 -3.44468 
634 1 10.1995 -111.479 3.73914 0.000356721 -3.44468 
636 1 8.16252 -110.317 2.06438 3.29262e-05 -3.44421 
631 1 6.12552 -108.643 3.22424 6.8413e-05 -3.44434 
635 1 10.1995 -108.643 3.22424 6.84154e-05 -3.44434 
643 1 6.12552 -111.988 0.903651 0.000255591 -3.44352 
647 1 10.1995 -111.988 0.903652 0.000255597 -3.44352 
813 1 6.12552 -109.155 0.389168 5.30716e-05 -3.44382 
817 1 10.1995 -109.155 0.389168 5.30755e-05 -3.44382 
797 1 2.05152 -105.807 2.70961 1.31009e-05 -3.44418 
812 1 4.08852 -107.482 1.54957 5.21768e-06 -3.44412 
803 1 4.08852 -104.647 1.03495 6.27724e-07 -3.44409 
800 1 4.08852 -104.132 3.86963 2.14337e-06 -3.44409 
808 1 0.0145225 -107.482 1.54957 5.21715e-06 -3.44412 
799 1 0.0145224 -104.647 1.03495 6.27513e-07 -3.44409 
796 1 0.0145223 -104.132 3.86963 2.14381e-06 -3.44409 
620 1 4.08852 -106.967 4.38397 9.0776e-06 -3.44413 
616 1 0.0145225 -106.967 4.38397 9.07802e-06 -3.44413 
798 1 2.05152 -102.972 2.19508 2.74378e-06 -3.44411 
801 1 6.12552 -105.807 2.70961 1.31042e-05 -3.44418 
805 1 10.1995 -105.807 2.70961 1.31052e-05 -3.44418 
816 1 8.16252 -107.482 1.54957 5.2188e-06 -3.44412 
807 1 8.16252 -104.647 1.03495 6.2802e-07 -3.44409 
804 1 8.16252 -104.132 3.86963 2.14407e-06 -3.44409 
624 1 8.16252 -106.967 4.38397 9.07781e-06 -3.44413 
802 1 6.12552 -102.972 2.19508 2.74472e-06 -3.44411 
806 1 10.1995 -102.972 2.19508 2.74496e-06 -3.44411 
791 1 4.08852 -101.298 3.35524 7.0243e-07 -3.44406 
968 1 2.05152 -100.138 1.68058 8.68094e-07 -3.44408 
787 1 0.0145222 -101.298 3.35524 7.0272e-07 -3.44406 
971 1 4.08852 -98.4636 2.84083 4.16732e-07 -3.44405 
967 1 0.0145222 -98.4636 2.84083 4.17089e-07 -3.44405 
983 1 4.08852 -101.812 0.520391 1.00282e-07 -3.44407 
979 1 0.0145223 -101.812 0.520391 1.0024e-07 -3.44407 
974 1 4.08852 -98.9775 0.00585515 1.65526e-07 -3.44406 
970 1 0.0145223 -98.9775 0.00585503 1.65463e-07 -3.44406 
786 1 2.05152 -99.6234 4.51555 6.02554e-07 -3.44402 
972 1 6.12552 -100.138 1.68058 8.68292e-07 -3.44408 
795 1 8.16252 -101.298 3.35524 7.02651e-07 -3.44406 
976 1 10.1995 -100.138 1.68058 8.68556e-07 -3.44408 
975 1 8.16252 -98.4636 2.84083 4.16896e-07 -3.44405 
987 1 8.16252 -101.812 0.520391 1.0034e-07 -3.44407 
978 1 8.16252 -98.9775 0.00585513 1.65549e-07 -3.44406 
790 1 6.12552 -99.6234 4.51555 6.02777e-07 -3.44402 
794 1 10.1995 -99.6234 4.51555 6.02646e-07 -3.44402 
342 1 2.05152 -120.014 5.30537 6.87875 -3.33087 
344 1 4.08852 -121.123 6.93679 15.4195 -3.11312 
228 1 2.05152 -122.133 8.61534 35.5412 -2.76682 
329 1 2.05152 -119.412 8.12045 0.0448094 -3.41 
340 1 0.0145226 -121.123 6.93679 15.4195 -3.11312 
335 1 4.08852 -118.314 6.44137 0.00920848 -3.44239 
331 1 0.0145225 -118.314 6.44137 0.00920851 -3.44239 
346 1 6.12552 -120.014 5.30537 6.87875 -3.33087 
350 1 10.1995 -120.014 5.30537 6.87875 -3.33087 
232 1 6.12552 -122.133 8.61534 35.5412 -2.76682 
333 1 6.12552 -119.412 8.12045 0.0448094 -3.41 
348 1 8.16252 -121.123 6.93679 15.4195 -3.11312 
236 1 10.1995 -122.133 8.61534 35.5412 -2.76682 
337 1 10.1995 -119.412 8.12045 0.0448095 -3.41 
339 1 8.16252 -118.314 6.44137 0.0092085 -3.44239 
470 1 2.05152 -117.167 4.77342 0.0104213 -3.44751 
473 1 4.08852 -115.474 5.92581 0.00115821 -3.44481 
330 1 2.05152 -116.611 7.59777 0.00732944 -3.4426 
469 1 0.0145226 -115.474 5.92581 0.00115819 -3.44481 
458 1 2.05152 -113.786 7.0854 0.00114416 -3.44308 
323 1 4.08852 -114.942 8.76129 0.00172703 -3.44312 
319 1 0.0145226 -114.942 8.76129 0.00172703 -3.44312 
464 1 4.08852 -112.637 5.41229 0.000215705 -3.44435 
460 1 0.0145226 -112.637 5.41229 0.0002157 -3.44435 
474 1 6.12552 -117.167 4.77342 0.0104214 -3.44751 
478 1 10.1995 -117.167 4.77342 0.0104213 -3.44751 
334 1 6.12552 -116.611 7.59777 0.00732944 -3.4426 
477 1 8.16252 -115.474 5.92581 0.0011582 -3.44481 
338 1 10.1995 -116.611 7.59777 0.00732945 -3.4426 
462 1 6.12552 -113.786 7.0854 0.00114415 -3.44308 
466 1 10.1995 -113.786 7.0854 0.00114416 -3.44308 
327 1 8.16252 -114.942 8.76129 0.00172704 -3.44312 
468 1 8.16252 -112.637 5.41229 0.0002157 -3.44435 
629 1 4.08852 -109.801 4.89822 4.36071e-05 -3.44421 
625 1 0.0145226 -109.801 4.89822 4.36058e-05 -3.44421 
459 1 2.05152 -110.956 6.57211 0.000238109 -3.44364 
461 1 4.08852 -112.113 8.24725 0.000588271 -3.4434 
452 1 4.08852 -109.282 7.73317 0.000185473 -3.44369 
457 1 0.0145225 -112.113 8.24725 0.000588269 -3.4434 
448 1 0.0145224 -109.282 7.73317 0.000185466 -3.44369 
614 1 2.05152 -108.124 6.05828 5.85002e-05 -3.44387 
447 1 2.05152 -107.611 8.89427 3.58924e-05 -3.44392 
633 1 8.16252 -109.801 4.89822 4.36041e-05 -3.44421 
463 1 6.12552 -110.956 6.57211 0.000238112 -3.44364 
467 1 10.1995 -110.956 6.57211 0.000238107 -3.44364 
465 1 8.16252 -112.113 8.24725 0.000588257 -3.4434 
456 1 8.16252 -109.282 7.73317 0.000185467 -3.44369 
618 1 6.12552 -108.124 6.05827 5.85066e-05 -3.44387 
622 1 10.1995 -108.124 6.05827 5.84988e-05 -3.44387 
451 1 6.12552 -107.611 8.89427 3.58942e-05 -3.44392 
455 1 10.1995 -107.611 8.89427 3.58942e-05 -3.44392 
615 1 2.05152 -105.291 5.54416 1.55105e-05 -3.44396 
617 1 4.08852 -106.45 7.21898 5.48145e-05 -3.44385 
602 1 2.05152 -104.778 8.37972 1.08441e-05 -3.44397 
613 1 0.0145224 -106.45 7.21898 5.48089e-05 -3.44385 
608 1 4.08852 -103.617 6.70468 1.45907e-05 -3.44394 
604 1 0.0145222 -103.617 6.70468 1.45897e-05 -3.44394 
619 1 6.12552 -105.291 5.54416 1.55122e-05 -3.44396 
623 1 10.1995 -105.291 5.54416 1.55097e-05 -3.44396 
606 1 6.12552 -104.778 8.37972 1.08441e-05 -3.44397 
621 1 8.16252 -106.45 7.21898 5.48118e-05 -3.44385 
610 1 10.1995 -104.778 8.37972 1.08443e-05 -3.44397 
612 1 8.16252 -103.617 6.70468 1.45895e-05 -3.44394 
785 1 2.05152 -102.457 5.02989 3.82959e-06 -3.444 
788 1 4.08852 -100.783 6.19032 2.911e-06 -3.44399 
603 1 2.05152 -101.944 7.86522 2.7171e-06 -3.444 
784 1 0.0145222 -100.783 6.19032 2.91091e-06 -3.44399 
773 1 2.05152 -99.1094 7.35074 8.1378e-07 -3.44402 
779 1 4.08852 -97.9493 5.67594 1.86453e-07 -3.44401 
775 1 0.0145221 -97.9493 5.67594 1.86546e-07 -3.44401 
596 1 4.08852 -100.27 9.02555 5.03699e-06 -3.44407 
592 1 0.0145221 -100.27 9.02555 5.03707e-06 -3.44407 
789 1 6.12552 -102.457 5.02989 3.83032e-06 -3.444 
793 1 10.1995 -102.457 5.02989 3.82934e-06 -3.444 
607 1 6.12552 -101.944 7.86522 2.71736e-06 -3.444 
792 1 8.16252 -100.783 6.19032 2.91133e-06 -3.44399 
611 1 10.1995 -101.944 7.86522 2.71736e-06 -3.444 
777 1 6.12552 -99.1094 7.35074 8.13883e-07 -3.44402 
781 1 10.1995 -99.1094 7.35074 8.1382e-07 -3.44402 
783 1 8.16252 -97.9493 5.67594 1.86628e-07 -3.44401 
600 1 8.16252 -100.27 9.02555 5.03718e-06 -3.44407 
332 1 4.08852 -117.768 9.27894 0.00533714 -3.44372 
328 1 0.0145226 -117.768 9.27893 0.00533716 -3.44372 
221 1 4.08852 -120.58 9.78271 7.38356 -3.29996 
217 1 0.0145226 -120.58 9.78271 7.38356 -3.29996 
215 1 2.05152 -121.696 11.4368 30.918 -2.89058 
218 1 4.08852 -120.109 12.6294 7.51442 -3.30507 
216 1 2.05152 -118.936 10.9564 0.00657824 -3.437 
214 1 0.0145226 -120.109 12.6294 7.51442 -3.30507 
203 1 2.05152 -118.457 13.7966 0.00984779 -3.43602 
336 1 8.16252 -117.768 9.27893 0.00533715 -3.44372 
225 1 8.16252 -120.58 9.78271 7.38356 -3.29996 
219 1 6.12552 -121.696 11.4368 30.918 -2.89058 
220 1 6.12552 -118.936 10.9564 0.00657826 -3.437 
223 1 10.1995 -121.696 11.4368 30.918 -2.89058 
222 1 8.16252 -120.109 12.6294 7.51442 -3.30507 
224 1 10.1995 -118.936 10.9564 0.00657826 -3.437 
207 1 6.12552 -118.457 13.7966 0.00984779 -3.43602 
211 1 10.1995 -118.457 13.7966 0.0098478 -3.43602 
318 1 2.05152 -113.277 9.9236 0.000239263 -3.44385 
317 1 2.05152 -116.108 10.439 0.00047519 -3.445 
209 1 4.08852 -117.286 12.1185 0.000988205 -3.44476 
204 1 2.05152 -115.619 13.2772 0.00121444 -3.44503 
320 1 4.08852 -114.447 11.6006 0.000211539 -3.44427 
205 1 0.0145225 -117.286 12.1185 0.0009882 -3.44476 
316 1 0.0145225 -114.447 11.6006 0.00021154 -3.44427 
305 1 2.05152 -112.779 12.7607 0.00057058 -3.44459 
322 1 6.12552 -113.277 9.9236 0.000239267 -3.44385 
326 1 10.1995 -113.277 9.9236 0.000239271 -3.44385 
321 1 6.12552 -116.108 10.439 0.000475196 -3.445 
208 1 6.12552 -115.619 13.2772 0.00121445 -3.44503 
325 1 10.1995 -116.108 10.439 0.000475202 -3.445 
213 1 8.16252 -117.286 12.1185 0.000988195 -3.44476 
212 1 10.1995 -115.619 13.2772 0.00121446 -3.44503 
324 1 8.16252 -114.447 11.6006 0.000211541 -3.44427 
309 1 6.12552 -112.779 12.7607 0.000570591 -3.44459 
313 1 10.1995 -112.779 12.7607 0.000570585 -3.44459 
446 1 2.05152 -110.444 9.40888 0.000101425 -3.44386 
311 1 4.08852 -111.611 11.085 8.85129e-05 -3.44418 
306 1 2.05152 -109.94 12.2451 0.000232736 -3.44439 
307 1 0.0145224 -111.611 11.085 8.85126e-05 -3.44418 
449 1 4.08852 -108.775 10.5698 3.63699e-05 -3.44414 
445 1 0.0145223 -108.775 10.5698 3.63694e-05 -3.44414 
299 1 4.08852 -108.265 13.4043 0.000161356 -3.44434 
295 1 0.0145222 -108.265 13.4043 0.000161357 -3.44434 
450 1 6.12552 -110.444 9.40888 0.000101428 -3.44386 
454 1 10.1995 -110.444 9.40888 0.000101429 -3.44386 
310 1 6.12552 -109.94 12.2451 0.000232743 -3.44439 
315 1 8.16252 -111.611 11.085 8.8513e-05 -3.44418 
314 1 10.1995 -109.94 12.2451 0.000232743 -3.44439 
453 1 8.16252 -108.775 10.5698 3.637e-05 -3.44414 
303 1 8.16252 -108.265 13.4043 0.000161357 -3.44434 
605 1 4.08852 -103.105 9.54017 7.90471e-06 -3.44408 
601 1 0.0145222 -103.105 9.54017 7.90447e-06 -3.44408 
440 1 4.08852 -105.94 10.0549 1.57235e-05 -3.4441 
436 1 0.0145222 -105.94 10.0549 1.5723e-05 -3.4441 
434 1 2.05152 -107.103 11.7299 9.16834e-05 -3.44426 
437 1 4.08852 -105.427 12.8894 6.11769e-05 -3.44422 
435 1 2.05152 -104.266 11.215 3.82381e-05 -3.44418 
433 1 0.0145221 -105.427 12.8894 6.11753e-05 -3.44422 
609 1 8.16252 -103.105 9.54017 7.90451e-06 -3.44408 
444 1 8.16252 -105.94 10.0549 1.57237e-05 -3.4441 
438 1 6.12552 -107.103 11.7299 9.16864e-05 -3.44426 
439 1 6.12552 -104.266 11.215 3.82388e-05 -3.44418 
442 1 10.1995 -107.103 11.7299 9.16881e-05 -3.44426 
441 1 8.16252 -105.427 12.8894 6.11768e-05 -3.44422 
443 1 10.1995 -104.266 11.215 3.82393e-05 -3.44418 
590 1 2.05152 -101.431 10.7002 1.81502e-05 -3.44413 
428 1 4.08852 -102.591 12.3747 2.66743e-05 -3.44415 
593 1 4.08852 -99.7552 11.86 1.35843e-05 -3.44411 
424 1 0.0145221 -102.591 12.3747 2.66749e-05 -3.44415 
589 1 0.0145221 -99.7552 11.86 1.35834e-05 -3.44411 
423 1 2.05152 -100.914 13.5342 6.51544e-06 -3.44409 
591 1 2.05152 -98.5953 10.1856 1.03603e-05 -3.4441 
578 1 2.05152 -98.0787 13.0197 4.38937e-06 -3.44408 
594 1 6.12552 -101.431 10.7002 1.81492e-05 -3.44413 
598 1 10.1995 -101.431 10.7002 1.81505e-05 -3.44413 
432 1 8.16252 -102.591 12.3747 2.66752e-05 -3.44415 
597 1 8.16252 -99.7552 11.86 1.35843e-05 -3.44411 
427 1 6.12552 -100.914 13.5342 6.51477e-06 -3.44409 
431 1 10.1995 -100.914 13.5342 6.51452e-06 -3.44409 
595 1 6.12552 -98.5953 10.1856 1.03607e-05 -3.4441 
599 1 10.1995 -98.5953 10.1856 1.03604e-05 -3.4441 
582 1 6.12552 -98.0787 13.0197 4.38895e-06 -3.44408 
586 1 10.1995 -98.0787 13.0197 4.38918e-06 -3.44408 
129 1 2.05152 -121.223 14.2747 30.7793 -2.89151 
122 1 4.08852 -119.641 15.4869 6.97082 -3.33089 
116 1 2.05152 -120.747 17.1194 15.4869 -3.11344 
118 1 0.0145226 -119.641 15.4869 6.97082 -3.33089 
117 1 2.05152 -117.94 16.6207 0.0083932 -3.4422 
119 1 4.08852 -119.037 18.3021 0.0490672 -3.40996 
115 1 0.0145226 -119.037 18.3021 0.0490671 -3.40996 
133 1 6.12552 -121.223 14.2747 30.7793 -2.89151 
137 1 10.1995 -121.223 14.2747 30.7793 -2.89151 
120 1 6.12552 -120.747 17.1194 15.4869 -3.11344 
126 1 8.16252 -119.641 15.4869 6.97082 -3.33089 
124 1 10.1995 -120.747 17.1194 15.4869 -3.11344 
121 1 6.12552 -117.94 16.6207 0.00839318 -3.4422 
125 1 10.1995 -117.94 16.6207 0.00839318 -3.4422 
123 1 8.16252 -119.037 18.3021 0.0490674 -3.40996 
197 1 4.08852 -113.945 14.4352 0.00180389 -3.44514 
193 1 0.0145224 -113.945 14.4352 0.0018039 -3.44514 
206 1 4.08852 -116.794 14.9529 0.0088759 -3.44688 
110 1 4.08852 -116.236 17.7767 0.00820386 -3.44233 
191 1 2.05152 -115.099 16.1053 0.000943665 -3.4445 
202 1 0.0145226 -116.794 14.9529 0.00887587 -3.44688 
106 1 0.0145224 -116.236 17.7767 0.00820388 -3.44233 
194 1 4.08852 -113.41 17.2647 0.00117767 -3.44293 
190 1 0.0145223 -113.41 17.2647 0.00117767 -3.44293 
201 1 8.16252 -113.945 14.4352 0.0018039 -3.44514 
195 1 6.12552 -115.099 16.1053 0.000943666 -3.4445 
210 1 8.16252 -116.794 14.9529 0.00887592 -3.44688 
114 1 8.16252 -116.236 17.7767 0.00820391 -3.44233 
199 1 10.1995 -115.099 16.1053 0.000943665 -3.4445 
198 1 8.16252 -113.41 17.2647 0.00117768 -3.44293 
308 1 4.08852 -111.103 13.9194 0.000491405 -3.44458 
304 1 0.0145223 -111.103 13.9194 0.000491409 -3.44458 
192 1 2.05152 -112.26 15.5921 0.000185315 -3.44417 
185 1 4.08852 -110.578 16.7513 0.000192042 -3.44359 
293 1 2.05152 -109.423 15.0778 5.29039e-05 -3.44412 
181 1 0.0145222 -110.578 16.7513 0.000192045 -3.44359 
180 1 2.05152 -108.901 17.9115 7.27482e-05 -3.4438 
296 1 4.08852 -107.744 16.2372 2.96346e-05 -3.44386 
292 1 0.0145221 -107.744 16.2372 2.96378e-05 -3.44386 
312 1 8.16252 -111.103 13.9194 0.000491414 -3.44458 
196 1 6.12552 -112.26 15.5921 0.000185312 -3.44417 
297 1 6.12552 -109.423 15.0778 5.29029e-05 -3.44412 
200 1 10.1995 -112.26 15.5921 0.000185317 -3.44417 
189 1 8.16252 -110.578 16.7513 0.000192038 -3.44359 
301 1 10.1995 -109.423 15.0778 5.29043e-05 -3.44412 
184 1 6.12552 -108.901 17.9115 7.27431e-05 -3.4438 
188 1 10.1995 -108.901 17.9115 7.27436e-05 -3.4438 
300 1 8.16252 -107.744 16.2372 2.96349e-05 -3.44386 
422 1 2.05152 -103.75 14.0488 1.08313e-05 -3.44409 
294 1 2.05152 -106.586 14.5634 2.11048e-05 -3.4441 
281 1 2.05152 -106.067 17.397 1.61027e-05 -3.44394 
287 1 4.08852 -104.908 15.7228 3.52628e-06 -3.44397 
283 1 0.0145221 -104.908 15.7228 3.5272e-06 -3.44397 
282 1 2.05152 -103.231 16.8825 3.43816e-06 -3.444 
426 1 6.12552 -103.75 14.0488 1.08307e-05 -3.44409 
430 1 10.1995 -103.75 14.0488 1.083e-05 -3.44409 
298 1 6.12552 -106.586 14.5634 2.11057e-05 -3.4441 
302 1 10.1995 -106.586 14.5634 2.1105e-05 -3.4441 
285 1 6.12552 -106.067 17.397 1.61017e-05 -3.44394 
289 1 10.1995 -106.067 17.397 1.61032e-05 -3.44394 
291 1 8.16252 -104.908 15.7228 3.52708e-06 -3.44397 
286 1 6.12552 -103.231 16.8825 3.43717e-06 -3.444 
290 1 10.1995 -103.231 16.8825 3.43833e-06 -3.444 
416 1 4.08852 -99.2373 14.6938 2.74904e-07 -3.44405 
412 1 0.0145222 -99.2373 14.6938 2.75102e-07 -3.44405 
425 1 4.08852 -102.073 15.2083 2.6528e-07 -3.44403 
410 1 2.05152 -100.396 16.3679 7.45954e-07 -3.44404 
421 1 0.0145222 -102.073 15.2083 2.65299e-07 -3.44403 
413 1 4.08852 -98.7189 17.5275 7.53253e-07 -3.44406 
409 1 0.0145222 -98.7189 17.5275 7.53011e-07 -3.44406 
275 1 4.08852 -101.555 18.0421 7.82691e-07 -3.44407 
271 1 0.0145222 -101.555 18.0421 7.82595e-07 -3.44407 
420 1 8.16252 -99.2373 14.6938 2.74974e-07 -3.44405 
414 1 6.12552 -100.396 16.3679 7.45867e-07 -3.44404 
429 1 8.16252 -102.073 15.2083 2.65351e-07 -3.44403 
418 1 10.1995 -100.396 16.3679 7.45807e-07 -3.44404 
417 1 8.16252 -98.7189 17.5275 7.53259e-07 -3.44406 
279 1 8.16252 -101.555 18.0421 7.82706e-07 -3.44407 
56 1 4.08852 -121.759 18.7942 35.3787 -2.76748 
52 1 0.0145226 -121.759 18.7942 35.3787 -2.76748 
51 1 2.05152 -120.208 19.9678 7.42166 -3.30022 
53 1 4.08852 -121.335 21.6144 30.919 -2.89215 
49 1 0.0145226 -121.335 21.6144 30.919 -2.89215 
44 1 4.08852 -118.571 21.1393 0.011315 -3.43735 
40 1 0.0145225 -118.571 21.1393 0.011315 -3.43735 
38 1 2.05152 -119.759 22.8287 6.90082 -3.33103 
104 1 2.05152 -117.395 19.4585 0.00534619 -3.44273 
60 1 8.16252 -121.759 18.7942 35.3787 -2.76748 
55 1 6.12552 -120.208 19.9678 7.42165 -3.30022 
59 1 10.1995 -120.208 19.9678 7.42165 -3.30022 
57 1 8.16252 -121.335 21.6144 30.919 -2.89215 
48 1 8.16252 -118.571 21.1393 0.011315 -3.43735 
42 1 6.12552 -119.759 22.8287 6.90082 -3.33103 
46 1 10.1995 -119.759 22.8287 6.90082 -3.33103 
108 1 6.12552 -117.395 19.4585 0.00534619 -3.44273 
112 1 10.1995 -117.395 19.4585 0.00534617 -3.44273 
105 1 2.05152 -114.566 18.9402 0.00127281 -3.44311 
107 1 4.08852 -115.735 20.6174 0.000760172 -3.44573 
39 1 2.05152 -116.912 22.2948 0.00968245 -3.44746 
92 1 2.05152 -114.065 21.7761 0.00160853 -3.44544 
103 1 0.0145223 -115.735 20.6174 0.000760174 -3.44573 
98 1 4.08852 -112.898 20.1014 0.00014217 -3.44441 
94 1 0.0145223 -112.898 20.1014 0.000142172 -3.44441 
109 1 6.12552 -114.566 18.9402 0.0012728 -3.44311 
113 1 10.1995 -114.566 18.9402 0.00127281 -3.44311 
43 1 6.12552 -116.912 22.2948 0.0096825 -3.44746 
96 1 6.12552 -114.065 21.7761 0.00160855 -3.44544 
111 1 8.16252 -115.735 20.6174 0.000760179 -3.44573 
47 1 10.1995 -116.912 22.2948 0.00968249 -3.44746 
100 1 10.1995 -114.065 21.7761 0.00160854 -3.44544 
102 1 8.16252 -112.898 20.1014 0.000142173 -3.44441 
179 1 2.05152 -111.735 18.4259 0.000313623 -3.4435 
182 1 4.08852 -110.062 19.5863 2.47208e-05 -3.44419 
93 1 2.05152 -111.224 21.2607 0.000271748 -3.44464 
86 1 4.08852 -109.545 22.4194 2.55369e-05 -3.44418 
178 1 0.0145222 -110.062 19.5863 2.47223e-05 -3.44419 
82 1 0.0145223 -109.545 22.4194 2.55367e-05 -3.44418 
167 1 2.05152 -108.386 20.7457 4.17321e-05 -3.44432 
95 1 4.08852 -112.382 22.9336 0.000152978 -3.44428 
91 1 0.0145223 -112.382 22.9336 0.000152974 -3.44428 
183 1 6.12552 -111.735 18.4259 0.000313611 -3.4435 
187 1 10.1995 -111.735 18.4259 0.000313614 -3.4435 
97 1 6.12552 -111.224 21.2607 0.000271756 -3.44464 
186 1 8.16252 -110.062 19.5863 2.4722e-05 -3.44419 
101 1 10.1995 -111.224 21.2607 0.000271752 -3.44464 
90 1 8.16252 -109.545 22.4194 2.55373e-05 -3.44418 
171 1 6.12552 -108.386 20.7457 4.17325e-05 -3.44432 
175 1 10.1995 -108.386 20.7457 4.17309e-05 -3.44432 
99 1 8.16252 -112.382 22.9336 0.000152977 -3.44428 
284 1 4.08852 -104.39 18.5567 1.21335e-06 -3.44407 
280 1 0.0145222 -104.39 18.5567 1.21319e-06 -3.44407 
173 1 4.08852 -107.226 19.0714 4.28279e-06 -3.4441 
169 1 0.0145221 -107.226 19.0714 4.28313e-06 -3.4441 
168 1 2.05152 -105.55 20.231 4.60837e-06 -3.44417 
170 1 4.08852 -106.709 21.905 3.65635e-06 -3.44412 
166 1 0.0145222 -106.709 21.905 3.65647e-06 -3.44412 
161 1 4.08852 -103.873 21.3904 7.17262e-07 -3.4441 
157 1 0.0145223 -103.873 21.3904 7.17391e-07 -3.4441 
269 1 2.05152 -102.714 19.7163 1.39387e-07 -3.44411 
288 1 8.16252 -104.39 18.5567 1.21313e-06 -3.44407 
177 1 8.16252 -107.226 19.0714 4.28296e-06 -3.4441 
172 1 6.12552 -105.55 20.231 4.60886e-06 -3.44417 
176 1 10.1995 -105.55 20.231 4.60769e-06 -3.44417 
174 1 8.16252 -106.709 21.905 3.65613e-06 -3.44412 
165 1 8.16252 -103.873 21.3904 7.17268e-07 -3.4441 
273 1 6.12552 -102.714 19.7163 1.39439e-07 -3.44411 
277 1 10.1995 -102.714 19.7163 1.39333e-07 -3.44411 
270 1 2.05152 -99.8779 19.2017 4.67717e-07 -3.44409 
272 1 4.08852 -101.037 20.8758 1.06057e-06 -3.44408 
257 1 2.05152 -99.3607 22.0355 3.81302e-06 -3.44406 
268 1 0.0145223 -101.037 20.8758 1.06066e-06 -3.44408 
156 1 2.05152 -102.196 22.5501 5.2643e-06 -3.44404 
263 1 4.08852 -98.2012 20.3612 1.8831e-06 -3.44408 
259 1 0.0145224 -98.2012 20.3612 1.883e-06 -3.44408 
274 1 6.12552 -99.8779 19.2017 4.67754e-07 -3.44409 
278 1 10.1995 -99.8779 19.2017 4.67651e-07 -3.44409 
261 1 6.12552 -99.3607 22.0355 3.81324e-06 -3.44406 
276 1 8.16252 -101.037 20.8758 1.06055e-06 -3.44408 
265 1 10.1995 -99.3607 22.0355 3.81407e-06 -3.44406 
160 1 6.12552 -102.196 22.5501 5.26486e-06 -3.44404 
164 1 10.1995 -102.196 22.5501 5.2651e-06 -3.44404 
267 1 8.16252 -98.2012 20.3612 1.88263e-06 -3.44408 
6 1 4.08852 -120.868 24.4608 15.4635 -3.11338 
1 1 2.05152 -121.882 26.1349 35.3907 -2.76739 
2 1 2.05152 -119.159 25.6447 0.0485958 -3.40988 
3 1 0.0145225 -120.868 24.4608 15.4635 -3.11338 
668 1 4.08852 -120.332 27.3098 7.42026 -3.30018 
664 1 0.0145225 -120.332 27.3098 7.42026 -3.30018 
41 1 4.08852 -118.06 23.9637 0.00849161 -3.44227 
37 1 0.0145224 -118.06 23.9637 0.00849157 -3.44227 
842 1 4.08852 -117.519 26.8015 0.00526175 -3.44267 
841 1 0.0145224 -117.519 26.8015 0.00526174 -3.44267 
4 1 6.12552 -121.882 26.1349 35.3907 -2.76739 
5 1 6.12552 -119.159 25.6447 0.0485959 -3.40988 
9 1 8.16252 -120.868 24.4608 15.4635 -3.11338 
7 1 10.1995 -121.882 26.1349 35.3907 -2.76739 
8 1 10.1995 -119.159 25.6447 0.0485959 -3.40988 
672 1 8.16252 -120.332 27.3098 7.42026 -3.30018 
45 1 8.16252 -118.06 23.9637 0.00849165 -3.44227 
843 1 8.16252 -117.519 26.8015 0.00526176 -3.44267 
32 1 4.08852 -115.22 23.447 0.000959976 -3.44472 
28 1 0.0145224 -115.22 23.447 0.000959962 -3.44472 
26 1 2.05152 -116.358 25.1194 0.00794559 -3.44236 
29 1 4.08852 -114.69 26.2826 0.00123291 -3.44313 
25 1 0.0145223 -114.69 26.2826 0.0012329 -3.44313 
27 1 2.05152 -113.532 24.6066 0.00113301 -3.443 
834 1 2.05152 -113.023 27.4439 0.000149463 -3.44443 
36 1 8.16252 -115.22 23.447 0.000959978 -3.44472 
30 1 6.12552 -116.358 25.1194 0.00794561 -3.44236 
34 1 10.1995 -116.358 25.1194 0.0079456 -3.44236 
33 1 8.16252 -114.69 26.2826 0.00123293 -3.44313 
31 1 6.12552 -113.532 24.6066 0.00113301 -3.443 
35 1 10.1995 -113.532 24.6066 0.00113302 -3.443 
837 1 6.12552 -113.023 27.4439 0.000149463 -3.44443 
840 1 10.1995 -113.023 27.4439 0.000149463 -3.44443 
80 1 2.05152 -110.701 24.0931 0.000198147 -3.44363 
23 1 4.08852 -111.859 25.7681 0.000304997 -3.44352 
1004 1 2.05152 -110.187 26.9287 2.5382e-05 -3.4442 
83 1 4.08852 -109.026 25.2536 7.6076e-05 -3.44382 
22 1 0.0145223 -111.859 25.7681 0.000304994 -3.44352 
79 1 0.0145224 -109.026 25.2536 7.60737e-05 -3.44382 
81 1 2.05152 -107.867 23.579 4.15166e-05 -3.44389 
84 1 6.12552 -110.701 24.0931 0.000198153 -3.44363 
1006 1 6.12552 -110.187 26.9287 2.53816e-05 -3.4442 
88 1 10.1995 -110.701 24.0931 0.000198151 -3.44363 
24 1 8.16252 -111.859 25.7681 0.000305003 -3.44352 
1008 1 10.1995 -110.187 26.9287 2.53812e-05 -3.4442 
87 1 8.16252 -109.026 25.2536 7.60797e-05 -3.44382 
85 1 6.12552 -107.867 23.579 4.15177e-05 -3.44389 
89 1 10.1995 -107.867 23.579 4.15147e-05 -3.44389 
155 1 2.05152 -105.032 23.0646 1.17623e-05 -3.444 
75 1 4.08852 -106.191 24.7391 2.15315e-05 -3.44396 
70 1 2.05152 -107.352 26.4138 3.82953e-06 -3.44412 
71 1 2.05152 -104.516 25.899 1.15766e-06 -3.44409 
72 1 0.0145223 -106.191 24.7391 2.15304e-05 -3.44396 
158 1 4.08852 -103.356 24.2245 8.18602e-06 -3.44402 
154 1 0.0145223 -103.356 24.2245 8.18618e-06 -3.44402 
1175 1 4.08852 -102.841 27.0589 3.47952e-07 -3.44412 
1174 1 0.0145224 -102.841 27.0589 3.48021e-07 -3.44412 
998 1 4.08852 -105.677 27.5736 6.45411e-06 -3.44418 
994 1 0.0145225 -105.677 27.5736 6.45526e-06 -3.44418 
159 1 6.12552 -105.032 23.0646 1.17627e-05 -3.444 
163 1 10.1995 -105.032 23.0646 1.17623e-05 -3.444 
73 1 6.12552 -107.352 26.4138 3.82959e-06 -3.44412 
74 1 6.12552 -104.516 25.899 1.15766e-06 -3.44409 
78 1 8.16252 -106.191 24.7391 2.15312e-05 -3.44396 
76 1 10.1995 -107.352 26.4138 3.82957e-06 -3.44412 
77 1 10.1995 -104.516 25.899 1.15762e-06 -3.44409 
162 1 8.16252 -103.356 24.2245 8.18584e-06 -3.44402 
1176 1 8.16252 -102.841 27.0589 3.4798e-07 -3.44412 
1002 1 8.16252 -105.677 27.5736 6.45564e-06 -3.44418 
150 1 4.08852 -100.52 23.7099 4.73066e-06 -3.44405 
147 1 0.0145225 -100.52 23.7099 4.7309e-06 -3.44405 
145 1 2.05152 -101.681 25.3844 1.40434e-06 -3.44408 
1169 1 4.08852 -100.006 26.5442 3.24427e-07 -3.44409 
1165 1 0.0145224 -100.006 26.5442 3.24441e-07 -3.44409 
146 1 2.05152 -98.8451 24.8697 2.03783e-06 -3.44407 
153 1 8.16252 -100.52 23.7099 4.73036e-06 -3.44405 
148 1 6.12552 -101.681 25.3844 1.40424e-06 -3.44408 
151 1 10.1995 -101.681 25.3844 1.40425e-06 -3.44408 
1173 1 8.16252 -100.006 26.5442 3.24472e-07 -3.44409 
149 1 6.12552 -98.8451 24.8697 2.03778e-06 -3.44407 
152 1 10.1995 -98.8451 24.8697 2.03779e-06 -3.44407 
663 1 2.05152 -118.696 28.4821 0.011503 -3.43731 
495 1 2.05152 -120.995 31.8026 15.4578 -3.11336 
662 1 2.05152 -121.461 28.9556 30.9249 -2.89212 
665 1 4.08852 -119.885 30.171 6.89573 -3.331 
661 1 0.0145225 -119.885 30.171 6.89573 -3.331 
650 1 2.05152 -118.187 31.3066 0.0086092 -3.44226 
667 1 6.12552 -118.696 28.4821 0.011503 -3.43731 
671 1 10.1995 -118.696 28.4821 0.011503 -3.43731 
499 1 6.12552 -120.995 31.8026 15.4578 -3.11336 
503 1 10.1995 -120.995 31.8026 15.4578 -3.11336 
666 1 6.12552 -121.461 28.9556 30.9249 -2.89212 
670 1 10.1995 -121.461 28.9556 30.9249 -2.89212 
669 1 8.16252 -119.885 30.171 6.89573 -3.331 
654 1 6.12552 -118.187 31.3066 0.00860921 -3.44226 
658 1 10.1995 -118.187 31.3066 0.0086092 -3.44226 
833 1 2.05152 -115.86 27.9603 0.000775159 -3.44572 
644 1 4.08852 -113.66 31.9499 0.00105765 -3.44301 
640 1 0.0145224 -113.66 31.9499 0.00105764 -3.44301 
656 1 4.08852 -117.039 29.638 0.00983264 -3.44745 
651 1 2.05152 -115.347 30.7903 0.000995433 -3.44473 
835 1 4.08852 -114.191 29.1191 0.00167307 -3.44546 
652 1 0.0145224 -117.039 29.638 0.00983259 -3.44745 
832 1 0.0145224 -114.191 29.1191 0.00167308 -3.44546 
821 1 2.05152 -112.509 30.2766 0.000171031 -3.44429 
836 1 6.12552 -115.86 27.9603 0.000775162 -3.44572 
839 1 10.1995 -115.86 27.9603 0.000775158 -3.44572 
648 1 8.16252 -113.66 31.9499 0.00105765 -3.44301 
655 1 6.12552 -115.347 30.7903 0.000995427 -3.44473 
660 1 8.16252 -117.039 29.638 0.00983258 -3.44745 
659 1 10.1995 -115.347 30.7903 0.000995432 -3.44473 
838 1 8.16252 -114.191 29.1191 0.00167307 -3.44546 
825 1 6.12552 -112.509 30.2766 0.000171029 -3.44429 
829 1 10.1995 -112.509 30.2766 0.000171031 -3.44429 
1005 1 4.08852 -108.513 28.0884 4.89053e-05 -3.44432 
1003 1 0.0145224 -108.513 28.0884 4.89075e-05 -3.44432 
827 1 4.08852 -111.351 28.6034 0.000294197 -3.44465 
823 1 0.0145224 -111.351 28.6034 0.000294205 -3.44465 
824 1 4.08852 -110.829 31.4363 0.000168794 -3.44364 
822 1 2.05152 -109.673 29.7624 3.31965e-05 -3.44418 
820 1 0.0145225 -110.829 31.4363 0.000168797 -3.44364 
815 1 4.08852 -107.996 30.9222 2.93732e-05 -3.44389 
811 1 0.0145224 -107.996 30.9222 2.93748e-05 -3.44389 
1007 1 8.16252 -108.513 28.0884 4.8908e-05 -3.44432 
831 1 8.16252 -111.351 28.6034 0.000294203 -3.44465 
826 1 6.12552 -109.673 29.7624 3.3196e-05 -3.44418 
828 1 8.16252 -110.829 31.4363 0.000168796 -3.44364 
830 1 10.1995 -109.673 29.7624 3.31985e-05 -3.44418 
819 1 8.16252 -107.996 30.9222 2.93746e-05 -3.44389 
810 1 2.05152 -106.321 32.0825 1.04684e-05 -3.44396 
992 1 2.05152 -106.837 29.2479 6.53301e-06 -3.44413 
995 1 4.08852 -105.161 30.4078 6.00767e-06 -3.444 
991 1 0.0145224 -105.161 30.4078 6.00727e-06 -3.444 
993 1 2.05152 -104.002 28.7334 1.31458e-06 -3.4441 
980 1 2.05152 -103.486 31.568 2.15817e-06 -3.44402 
814 1 6.12552 -106.321 32.0825 1.04671e-05 -3.44396 
818 1 10.1995 -106.321 32.0825 1.04691e-05 -3.44396 
996 1 6.12552 -106.837 29.2479 6.53186e-06 -3.44413 
1000 1 10.1995 -106.837 29.2479 6.53274e-06 -3.44413 
999 1 8.16252 -105.161 30.4078 6.00808e-06 -3.444 
997 1 6.12552 -104.002 28.7334 1.31423e-06 -3.4441 
1001 1 10.1995 -104.002 28.7334 1.31451e-06 -3.4441 
988 1 10.1995 -103.486 31.568 2.15817e-06 -3.44402 
984 1 6.12552 -103.486 31.568 2.15734e-06 -3.44402 
1164 1 2.05152 -98.3308 27.7041 6.74472e-07 -3.44408 
1163 1 2.05152 -101.166 28.2188 5.22252e-07 -3.44408 
986 1 4.08852 -102.326 29.8933 1.76013e-06 -3.44404 
981 1 2.05152 -100.652 31.0535 6.33152e-07 -3.44404 
1166 1 4.08852 -99.4913 29.3788 8.96052e-07 -3.44406 
982 1 0.0145224 -102.326 29.8933 1.76015e-06 -3.44404 
1162 1 0.0145224 -99.4913 29.3788 8.96245e-07 -3.44406 
1151 1 2.05152 -97.817 30.5389 3.93698e-07 -3.44406 
1172 1 10.1995 -98.3308 27.7041 6.74543e-07 -3.44408 
1168 1 6.12552 -98.3308 27.7041 6.74481e-07 -3.44408 
990 1 8.16252 -102.326 29.8933 1.76019e-06 -3.44404 
985 1 6.12552 -100.652 31.0535 6.3285e-07 -3.44404 
1170 1 8.16252 -99.4913 29.3788 8.96236e-07 -3.44406 
989 1 10.1995 -100.652 31.0535 6.33164e-07 -3.44404 
1171 1 10.1995 -101.166 28.2188 5.22271e-07 -3.44408 
1167 1 6.12552 -101.166 28.2188 5.22285e-07 -3.44408 