ITEM: TIMESTEP
0
ITEM: NUMBER OF ATOMS
4104
ITEM: BOX BOUNDS pp ff pp
0.0000000000000000e+00 1.2222000000000000e+01
-1.2237985218999999e+02 1.2237985218999999e+02
0.0000000000000000e+00 2.3225373408999999e+01
ITEM: ATOMS id type x y z c_csym c_eng 
229 2 2.08423 -122.073 3.16426 35.5618 -2.76699 
231 2 2.08423 -119.329 2.81624 0.0446798 -3.41006 
6 2 0.0472271 -120.584 4.41144 7.38437 -3.29976 
230 2 4.12123 -120.584 4.41144 7.38437 -3.29976 
30 2 0.0472271 -120.976 1.54276 15.444 -3.11319 
278 2 4.12123 -120.976 1.54276 15.444 -3.11319 
45 2 0.0472269 -118.144 1.20008 0.00890575 -3.44237 
306 2 4.12123 -118.144 1.20008 0.00890574 -3.44237 
667 2 6.15823 -122.073 3.16426 35.5618 -2.76699 
1100 2 10.2322 -122.073 3.16426 35.5618 -2.76699 
669 2 6.15823 -119.329 2.81624 0.0446798 -3.41006 
1101 2 10.2322 -119.329 2.81624 0.0446798 -3.41006 
668 2 8.19523 -120.584 4.41144 7.38437 -3.29976 
716 2 8.19523 -120.976 1.54276 15.444 -3.11319 
744 2 8.19523 -118.144 1.20008 0.00890572 -3.44237 
14 2 0.047227 -117.748 4.06285 0.00509708 -3.44401 
246 2 4.12123 -117.748 4.06285 0.00509706 -3.44401 
248 2 2.08423 -116.503 2.44869 0.00756057 -3.44267 
15 2 0.0472268 -114.898 3.7027 0.00173979 -3.44321 
249 2 4.12123 -114.898 3.7027 0.00173977 -3.44321 
46 2 0.0472268 -115.279 0.842962 0.00110792 -3.44462 
308 2 4.12123 -115.279 0.842962 0.00110792 -3.44462 
684 2 8.19523 -117.748 4.06285 0.00509708 -3.44401 
686 2 6.15823 -116.503 2.44869 0.00756058 -3.44267 
1110 2 10.2322 -116.503 2.44869 0.00756058 -3.44267 
687 2 8.19523 -114.898 3.7027 0.00173978 -3.44321 
746 2 8.19523 -115.279 0.842962 0.00110792 -3.44462 
334 2 2.08423 -113.655 2.09397 0.00125014 -3.44305 
59 2 0.0472266 -112.417 0.487786 0.000232361 -3.44424 
335 2 4.12123 -112.417 0.487786 0.000232362 -3.44424 
27 2 0.0472266 -112.045 3.34648 0.000669979 -3.44344 
273 2 4.12123 -112.045 3.34648 0.000669965 -3.44344 
336 2 2.08423 -110.8 1.73853 0.00028874 -3.44363 
60 2 0.0472263 -109.557 0.131785 6.20819e-05 -3.44416 
338 2 4.12123 -109.557 0.131785 6.20813e-05 -3.44416 
274 2 2.08423 -110.441 4.59872 0.000185965 -3.44388 
772 2 6.15823 -113.655 2.09397 0.00125014 -3.44305 
1152 2 10.2322 -113.655 2.09397 0.00125015 -3.44305 
773 2 8.19523 -112.417 0.487786 0.000232361 -3.44424 
711 2 8.19523 -112.045 3.34648 0.000669973 -3.44344 
774 2 6.15823 -110.8 1.73853 0.000288742 -3.44363 
1153 2 10.2322 -110.8 1.73853 0.000288744 -3.44363 
776 2 8.19523 -109.557 0.131785 6.20813e-05 -3.44416 
712 2 6.15823 -110.441 4.59872 0.000185963 -3.44388 
1123 2 10.2322 -110.441 4.59872 0.000185965 -3.44388 
28 2 0.0472263 -109.19 2.99029 0.000256107 -3.44371 
275 2 4.12123 -109.19 2.99029 0.000256103 -3.44371 
364 2 2.08423 -107.943 1.38258 8.28431e-05 -3.44386 
301 2 2.08423 -107.585 4.24213 9.73058e-05 -3.4439 
43 2 0.0472259 -106.334 2.63399 9.97654e-05 -3.44385 
303 2 4.12123 -106.334 2.63399 9.97661e-05 -3.44385 
713 2 8.19523 -109.19 2.99029 0.000256106 -3.44371 
802 2 6.15823 -107.943 1.38258 8.28436e-05 -3.44386 
1168 2 10.2322 -107.943 1.38258 8.28422e-05 -3.44386 
739 2 6.15823 -107.585 4.24213 9.73058e-05 -3.4439 
1136 2 10.2322 -107.585 4.24213 9.73035e-05 -3.4439 
741 2 8.19523 -106.334 2.63399 9.97665e-05 -3.44385 
304 2 2.08423 -104.727 3.88554 4.68056e-05 -3.44394 
44 2 0.0472255 -103.477 2.27758 4.02038e-05 -3.44394 
305 2 4.12123 -103.477 2.27758 4.02048e-05 -3.44394 
366 2 2.08423 -105.086 1.02633 2.78979e-05 -3.44396 
331 2 2.08423 -101.869 3.52894 2.16421e-05 -3.44398 
392 2 2.08423 -102.227 0.669929 1.06419e-05 -3.44401 
742 2 6.15823 -104.727 3.88554 4.68057e-05 -3.44394 
1137 2 10.2322 -104.727 3.88554 4.68049e-05 -3.44394 
743 2 8.19523 -103.477 2.27758 4.02061e-05 -3.44394 
804 2 6.15823 -105.086 1.02633 2.78976e-05 -3.44396 
1169 2 10.2322 -105.086 1.02633 2.78977e-05 -3.44396 
769 2 6.15823 -101.869 3.52894 2.16418e-05 -3.44398 
1150 2 10.2322 -101.869 3.52894 2.16422e-05 -3.44398 
1182 2 10.2322 -102.227 0.669929 1.06413e-05 -3.44401 
830 2 6.15823 -102.227 0.669929 1.06415e-05 -3.44401 
87 2 0.0472251 -100.619 1.92108 1.68312e-05 -3.44398 
393 2 4.12123 -100.619 1.92108 1.68306e-05 -3.44398 
333 2 2.08422 -99.0109 3.17231 9.87403e-06 -3.44401 
395 2 2.08422 -99.3686 0.313429 4.50377e-06 -3.44403 
71 2 0.0472245 -97.4038 4.4235 2.41954e-06 -3.44404 
359 2 4.12122 -97.4038 4.4235 2.41944e-06 -3.44404 
102 2 0.0472247 -97.76 1.56452 7.33047e-06 -3.44401 
421 2 4.12122 -97.76 1.56452 7.32977e-06 -3.44401 
831 2 8.19523 -100.619 1.92108 1.68312e-05 -3.44398 
1151 2 10.2322 -99.0109 3.17231 9.87379e-06 -3.44401 
771 2 6.15822 -99.0109 3.17231 9.87355e-06 -3.44401 
833 2 6.15822 -99.3686 0.313429 4.50425e-06 -3.44403 
1183 2 10.2322 -99.3686 0.313429 4.50454e-06 -3.44403 
797 2 8.19522 -97.4038 4.4235 2.41943e-06 -3.44404 
859 2 8.19522 -97.76 1.56452 7.33047e-06 -3.44401 
361 2 2.08422 -96.1522 2.81567 4.51934e-06 -3.44403 
72 2 0.047224 -94.5447 4.0668 1.16355e-06 -3.44405 
362 2 4.12122 -94.5447 4.0668 1.16352e-06 -3.44405 
103 2 0.0472242 -94.9013 1.20793 3.32665e-06 -3.44403 
423 2 4.12122 -94.9013 1.20793 3.32558e-06 -3.44403 
363 2 2.08422 -93.2933 2.45902 2.09929e-06 -3.44404 
799 2 6.15822 -96.1522 2.81567 4.51929e-06 -3.44403 
1166 2 10.2322 -96.1522 2.81567 4.51953e-06 -3.44403 
800 2 8.19522 -94.5447 4.0668 1.16347e-06 -3.44405 
861 2 8.19522 -94.9013 1.20793 3.32616e-06 -3.44403 
801 2 6.15822 -93.2933 2.45902 2.09918e-06 -3.44404 
1167 2 10.2322 -93.2933 2.45902 2.09972e-06 -3.44404 
85 2 0.0472237 -91.6856 3.7101 5.62411e-07 -3.44405 
389 2 4.12122 -91.6856 3.7101 5.62371e-07 -3.44405 
451 2 2.08422 -90.4343 2.10236 9.98187e-07 -3.44405 
86 2 0.0472231 -88.8264 3.35341 2.76001e-07 -3.44406 
391 2 4.12122 -88.8264 3.35341 2.75992e-07 -3.44406 
117 2 0.0472238 -92.0424 0.851308 1.57512e-06 -3.44404 
450 2 4.12122 -92.0424 0.851308 1.57477e-06 -3.44404 
118 2 0.0472232 -89.1833 0.494671 7.78887e-07 -3.44405 
453 2 4.12122 -89.1833 0.494671 7.78972e-07 -3.44405 
827 2 8.19522 -91.6856 3.7101 5.62216e-07 -3.44405 
889 2 6.15822 -90.4343 2.10236 9.98169e-07 -3.44405 
1210 2 10.2322 -90.4343 2.10236 9.98189e-07 -3.44405 
829 2 8.19522 -88.8264 3.35341 2.75985e-07 -3.44406 
888 2 8.19522 -92.0424 0.851308 1.57495e-06 -3.44404 
891 2 8.19522 -89.1833 0.494671 7.78987e-07 -3.44405 
100 2 0.0472226 -85.9672 2.99672 1.38424e-07 -3.44406 
418 2 4.12122 -85.9672 2.99672 1.38447e-07 -3.44406 
419 2 2.08422 -84.3592 4.24772 3.3446e-08 -3.44406 
479 2 2.08422 -87.5752 1.7457 4.88804e-07 -3.44405 
481 2 2.08422 -84.716 1.38903 2.4776e-07 -3.44406 
131 2 0.0472227 -86.3242 0.138022 4.02637e-07 -3.44405 
480 2 4.12122 -86.3242 0.138022 4.02757e-07 -3.44405 
416 2 2.08422 -87.2185 4.60442 6.62124e-08 -3.44407 
856 2 8.19522 -85.9672 2.99672 1.38515e-07 -3.44406 
857 2 6.15822 -84.3592 4.24772 3.34633e-08 -3.44406 
1195 2 10.2322 -84.3592 4.24772 3.34679e-08 -3.44406 
917 2 6.15822 -87.5752 1.7457 4.88729e-07 -3.44405 
1225 2 10.2322 -87.5752 1.7457 4.88767e-07 -3.44405 
919 2 6.15822 -84.716 1.38903 2.47774e-07 -3.44406 
1226 2 10.2322 -84.716 1.38903 2.47792e-07 -3.44406 
918 2 8.19522 -86.3242 0.138022 4.02713e-07 -3.44405 
854 2 6.15822 -87.2185 4.60442 6.62071e-08 -3.44407 
1194 2 10.2322 -87.2185 4.60442 6.62233e-08 -3.44407 
101 2 0.047222 -83.1079 2.64004 7.13548e-08 -3.44406 
420 2 4.12122 -83.1079 2.64004 7.13658e-08 -3.44406 
446 2 2.08422 -81.4998 3.89102 1.72622e-08 -3.44406 
116 2 0.0472214 -80.2487 2.28335 3.79305e-08 -3.44406 
448 2 4.12122 -80.2487 2.28335 3.79174e-08 -3.44406 
508 2 2.08422 -81.8568 1.03236 1.30559e-07 -3.44406 
858 2 8.19522 -83.1079 2.64004 7.13901e-08 -3.44406 
884 2 6.15822 -81.4998 3.89102 1.72587e-08 -3.44406 
1208 2 10.2322 -81.4998 3.89102 1.72538e-08 -3.44406 
886 2 8.19522 -80.2487 2.28335 3.79703e-08 -3.44406 
1240 2 10.2322 -81.8568 1.03236 1.30557e-07 -3.44406 
946 2 6.15822 -81.8568 1.03236 1.30583e-07 -3.44406 
510 2 2.08422 -78.9976 0.675689 7.17865e-08 -3.44406 
449 2 2.08422 -78.6405 3.53433 9.00681e-09 -3.44406 
159 2 0.0472209 -77.3894 1.92667 2.08721e-08 -3.44406 
536 2 4.12122 -77.3894 1.92667 2.08685e-08 -3.44406 
476 2 2.08422 -75.7811 3.17765 4.71443e-09 -3.44406 
537 2 2.08422 -76.1383 0.319015 4.14404e-08 -3.44406 
1241 2 10.2322 -78.9976 0.675689 7.17899e-08 -3.44406 
948 2 6.15822 -78.9976 0.675689 7.17821e-08 -3.44406 
887 2 6.15822 -78.6405 3.53433 9.00836e-09 -3.44406 
1209 2 10.2322 -78.6405 3.53433 9.0134e-09 -3.44406 
974 2 8.19522 -77.3894 1.92667 2.08708e-08 -3.44406 
914 2 6.15822 -75.7811 3.17765 4.71254e-09 -3.44406 
1223 2 10.2322 -75.7811 3.17765 4.70184e-09 -3.44406 
975 2 6.15822 -76.1383 0.319015 4.1404e-08 -3.44406 
1254 2 10.2322 -76.1383 0.319015 4.14239e-08 -3.44406 
130 2 0.0472202 -74.1729 4.42861 1.42408e-08 -3.44407 
477 2 4.12122 -74.1729 4.42861 1.42488e-08 -3.44407 
160 2 0.0472203 -74.5301 1.56999 1.19152e-08 -3.44406 
538 2 4.12122 -74.5301 1.56999 1.19137e-08 -3.44406 
478 2 2.08422 -72.9218 2.82096 2.40484e-09 -3.44406 
143 2 0.0472197 -71.3135 4.07192 8.47283e-09 -3.44406 
504 2 4.12122 -71.3135 4.07192 8.47677e-09 -3.44406 
175 2 0.0472198 -71.6708 1.21331 7.11276e-09 -3.44406 
566 2 4.12122 -71.6708 1.21331 7.10907e-09 -3.44406 
915 2 8.19522 -74.1729 4.42861 1.42123e-08 -3.44407 
976 2 8.19522 -74.5301 1.56999 1.19104e-08 -3.44406 
916 2 6.15822 -72.9218 2.82096 2.40458e-09 -3.44406 
1224 2 10.2322 -72.9218 2.82096 2.39545e-09 -3.44406 
942 2 8.19522 -71.3135 4.07192 8.46213e-09 -3.44406 
1004 2 8.19522 -71.6708 1.21331 7.1171e-09 -3.44406 
506 2 2.08422 -70.0625 2.46428 1.15185e-09 -3.44406 
176 2 0.0472192 -68.8114 0.856632 4.50565e-09 -3.44406 
568 2 4.12122 -68.8114 0.856632 4.51802e-09 -3.44406 
144 2 0.0472191 -68.4542 3.71524 5.40267e-09 -3.44406 
507 2 4.12122 -68.4542 3.71524 5.41187e-09 -3.44406 
594 2 2.08422 -67.2031 2.1076 4.77954e-10 -3.44406 
944 2 6.15822 -70.0625 2.46428 1.15126e-09 -3.44406 
1239 2 10.2322 -70.0625 2.46428 1.14851e-09 -3.44406 
1006 2 8.19522 -68.8114 0.856632 4.51561e-09 -3.44406 
945 2 8.19522 -68.4542 3.71524 5.38886e-09 -3.44406 
1032 2 6.15822 -67.2031 2.1076 4.78181e-10 -3.44406 
1282 2 10.2322 -67.2031 2.1076 4.7507e-10 -3.44406 
157 2 0.0472186 -65.5948 3.35856 3.79823e-09 -3.44406 
533 2 4.12122 -65.5948 3.35856 3.80536e-09 -3.44406 
596 2 2.08422 -64.3438 1.75092 1.40757e-10 -3.44406 
189 2 0.0472187 -65.9521 0.499954 3.11593e-09 -3.44406 
595 2 4.12122 -65.9521 0.499954 3.11267e-09 -3.44406 
158 2 0.0472182 -62.7355 3.00188 3.04482e-09 -3.44406 
535 2 4.12122 -62.7355 3.00188 3.05061e-09 -3.44406 
190 2 0.0472183 -63.0928 0.143276 2.44747e-09 -3.44406 
598 2 4.12122 -63.0928 0.143276 2.43849e-09 -3.44406 
534 2 2.08422 -63.9865 4.60952 9.79591e-09 -3.44406 
971 2 8.19522 -65.5948 3.35856 3.7849e-09 -3.44406 
1034 2 6.15822 -64.3438 1.75092 1.3945e-10 -3.44406 
1283 2 10.2322 -64.3438 1.75092 1.38192e-10 -3.44406 
1033 2 8.19522 -65.9521 0.499954 3.12806e-09 -3.44406 
973 2 8.19522 -62.7355 3.00188 3.04333e-09 -3.44406 
1036 2 8.19522 -63.0928 0.143276 2.45198e-09 -3.44406 
972 2 6.15822 -63.9865 4.60952 9.83061e-09 -3.44406 
1253 2 10.2322 -63.9865 4.60952 9.78128e-09 -3.44406 
561 2 2.08422 -61.1272 4.25284 8.84474e-09 -3.44406 
173 2 0.0472178 -59.8762 2.6452 2.88905e-09 -3.44406 
563 2 4.12122 -59.8762 2.6452 2.89422e-09 -3.44406 
622 2 2.08422 -61.4845 1.39424 1.5868e-11 -3.44406 
624 2 2.08422 -58.6251 1.03756 6.32751e-11 -3.44406 
564 2 2.08422 -58.2679 3.89617 9.0936e-09 -3.44406 
999 2 6.15822 -61.1272 4.25284 8.86078e-09 -3.44406 
1266 2 10.2322 -61.1272 4.25284 8.82918e-09 -3.44406 
1001 2 8.19522 -59.8762 2.6452 2.88935e-09 -3.44406 
1060 2 6.15822 -61.4845 1.39424 1.54215e-11 -3.44406 
1297 2 10.2322 -61.4845 1.39424 1.45654e-11 -3.44406 
1062 2 6.15822 -58.6251 1.03756 6.11774e-11 -3.44406 
1298 2 10.2322 -58.6251 1.03756 6.19949e-11 -3.44406 
1002 2 6.15822 -58.2679 3.89617 9.10326e-09 -3.44406 
1267 2 10.2322 -58.2679 3.89617 9.08447e-09 -3.44406 
174 2 0.0472175 -57.0168 2.28853 3.24624e-09 -3.44406 
565 2 4.12122 -57.0168 2.28853 3.25063e-09 -3.44406 
591 2 2.08422 -55.4085 3.53949 1.05722e-08 -3.44406 
642 2 2.08422 -55.7658 0.680882 2.85508e-10 -3.44406 
211 2 0.0472172 -54.1575 1.93185 4.22234e-09 -3.44406 
643 2 4.12122 -54.1575 1.93185 4.2064e-09 -3.44406 
1003 2 8.19522 -57.0168 2.28853 3.24474e-09 -3.44406 
1029 2 6.15822 -55.4085 3.53949 1.05583e-08 -3.44406 
1280 2 10.2322 -55.4085 3.53949 1.05445e-08 -3.44406 
1080 2 6.15822 -55.7658 0.680882 2.82539e-10 -3.44406 
1308 2 10.2322 -55.7658 0.680882 2.85629e-10 -3.44406 
1081 2 8.19522 -54.1575 1.93185 4.21941e-09 -3.44406 
593 2 2.08422 -52.5492 3.18282 1.36315e-08 -3.44406 
201 2 0.0472167 -50.9409 4.43379 2.41474e-08 -3.44406 
619 2 4.12122 -50.9409 4.43379 2.41467e-08 -3.44406 
621 2 2.08422 -49.6899 2.82614 1.91127e-08 -3.44406 
217 2 0.0472168 -51.2982 1.57517 6.05841e-09 -3.44406 
654 2 4.12122 -51.2982 1.57517 6.04349e-09 -3.44406 
645 2 2.08422 -52.9065 0.324203 7.39985e-10 -3.44406 
1031 2 6.15822 -52.5492 3.18282 1.36254e-08 -3.44406 
1281 2 10.2322 -52.5492 3.18282 1.36337e-08 -3.44406 
1057 2 8.19522 -50.9409 4.43379 2.41516e-08 -3.44406 
1059 2 6.15822 -49.6899 2.82614 1.90706e-08 -3.44406 
1296 2 10.2322 -49.6899 2.82614 1.90915e-08 -3.44406 
1092 2 8.19522 -51.2982 1.57517 6.04808e-09 -3.44406 
1083 2 6.15822 -52.9065 0.324203 7.37714e-10 -3.44406 
1309 2 10.2322 -52.9065 0.324203 7.37441e-10 -3.44406 
1314 2 2.08422 -46.8306 2.46947 2.84943e-08 -3.44406 
1317 2 4.12122 -48.0816 4.07712 3.3866e-08 -3.44406 
1318 2 0.0472164 -48.0816 4.07712 3.38467e-08 -3.44406 
1315 2 4.12122 -45.2223 3.72045 4.97911e-08 -3.44406 
1316 2 0.0472159 -45.2223 3.72045 4.98166e-08 -3.44406 
218 2 0.0472164 -48.4389 1.21849 9.3122e-09 -3.44406 
656 2 4.12122 -48.4389 1.21849 9.28418e-09 -3.44406 
1511 2 4.12122 -45.5796 0.861815 1.49719e-08 -3.44406 
1512 2 0.0472161 -45.5796 0.861815 1.50022e-08 -3.44406 
1323 2 6.15822 -46.8306 2.46947 2.84855e-08 -3.44406 
1324 2 10.2322 -46.8306 2.46947 2.84975e-08 -3.44406 
1326 2 8.19522 -48.0816 4.07712 3.38886e-08 -3.44406 
1325 2 8.19522 -45.2223 3.72045 4.98397e-08 -3.44406 
1094 2 8.19522 -48.4389 1.21849 9.28231e-09 -3.44406 
1519 2 8.19522 -45.5796 0.861815 1.50027e-08 -3.44406 
1510 2 2.08422 -43.9713 2.1128 4.45393e-08 -3.44406 
1334 2 4.12122 -42.3631 3.36378 7.59856e-08 -3.44406 
1335 2 0.0472155 -42.3631 3.36378 7.59749e-08 -3.44406 
1525 2 2.08422 -41.1121 1.75612 7.26239e-08 -3.44406 
1526 2 4.12122 -42.7203 0.505136 2.51131e-08 -3.44406 
1527 2 0.0472156 -42.7203 0.505136 2.51084e-08 -3.44406 
1517 2 6.15822 -43.9713 2.11279 4.45604e-08 -3.44406 
1518 2 10.2322 -43.9713 2.11279 4.46244e-08 -3.44406 
1342 2 8.19522 -42.3631 3.36378 7.59723e-08 -3.44406 
1533 2 6.15822 -41.1121 1.75612 7.25995e-08 -3.44406 
1534 2 10.2322 -41.1121 1.75612 7.26304e-08 -3.44406 
1535 2 8.19522 -42.7203 0.505136 2.51152e-08 -3.44406 
1332 2 4.12122 -39.5038 3.00711 1.19246e-07 -3.44406 
1333 2 0.0472151 -39.5038 3.00711 1.19261e-07 -3.44406 
1528 2 4.12122 -39.861 0.148456 4.35977e-08 -3.44406 
1529 2 0.0472151 -39.861 0.148456 4.3539e-08 -3.44406 
1347 2 4.12121 -36.6446 2.65045 1.91883e-07 -3.44406 
1348 2 0.0472147 -36.6446 2.65045 1.92027e-07 -3.44406 
1350 2 2.08421 -37.8955 4.2581 1.29181e-07 -3.44406 
1541 2 2.08421 -38.2528 1.39945 1.22685e-07 -3.44406 
1336 2 2.08422 -40.7548 4.61476 8.78245e-08 -3.44406 
1341 2 8.19522 -39.5038 3.00711 1.19176e-07 -3.44406 
1536 2 8.19522 -39.861 0.148456 4.35702e-08 -3.44406 
1356 2 8.19521 -36.6446 2.65045 1.91867e-07 -3.44406 
1359 2 6.15821 -37.8955 4.2581 1.29051e-07 -3.44406 
1360 2 10.2322 -37.8955 4.2581 1.29037e-07 -3.44406 
1550 2 10.2322 -38.2528 1.39945 1.22661e-07 -3.44406 
1556 2 6.15822 -38.2528 1.39945 1.22632e-07 -3.44406 
1343 2 6.15822 -40.7548 4.61476 8.7786e-08 -3.44406 
1344 2 10.2322 -40.7548 4.61476 8.77089e-08 -3.44406 
1349 2 2.08421 -35.0363 3.90145 1.90091e-07 -3.44406 
1542 2 2.08421 -35.3936 1.04278 2.14542e-07 -3.44406 
1353 2 4.12121 -33.7855 2.29379 3.16437e-07 -3.44406 
1354 2 0.0472141 -33.7855 2.29379 3.16602e-07 -3.44406 
1885 2 2.08421 -32.5345 0.686111 3.88696e-07 -3.44406 
1357 2 6.15821 -35.0363 3.90145 1.89924e-07 -3.44406 
1358 2 10.2322 -35.0363 3.90145 1.90002e-07 -3.44406 
1551 2 10.2322 -35.3936 1.04278 2.14452e-07 -3.44406 
1554 2 6.15821 -35.3936 1.04278 2.14449e-07 -3.44406 
1362 2 8.19521 -33.7855 2.29379 3.16289e-07 -3.44406 
1892 2 10.2322 -32.5345 0.686111 3.88564e-07 -3.44406 
1891 2 6.15821 -32.5345 0.686111 3.88529e-07 -3.44406 
1559 2 2.08421 -32.1772 3.5448 2.78807e-07 -3.44406 
1883 2 4.12121 -30.9263 1.93714 5.36059e-07 -3.44405 
1884 2 0.0472135 -30.9263 1.93714 5.36118e-07 -3.44405 
1886 2 2.08421 -29.6753 0.329446 7.30571e-07 -3.44405 
1558 2 2.08421 -29.318 3.18815 4.0648e-07 -3.44406 
1898 2 4.12121 -28.0673 1.58049 9.35614e-07 -3.44405 
1899 2 0.0472129 -28.0673 1.58049 9.35273e-07 -3.44405 
1568 2 6.15821 -32.1772 3.5448 2.78511e-07 -3.44406 
1569 2 10.2322 -32.1772 3.5448 2.78579e-07 -3.44406 
1890 2 8.19521 -30.9263 1.93714 5.35153e-07 -3.44405 
1893 2 6.15821 -29.6753 0.329446 7.30561e-07 -3.44405 
1894 2 10.2322 -29.6753 0.329446 7.30636e-07 -3.44405 
1566 2 6.15821 -29.318 3.18815 4.05794e-07 -3.44406 
1567 2 10.2322 -29.318 3.18815 4.05728e-07 -3.44406 
1908 2 8.19521 -28.0673 1.58049 9.33136e-07 -3.44405 
1576 2 2.08421 -26.459 2.83152 5.8947e-07 -3.44406 
1579 2 4.12121 -27.7096 4.43915 1.52503e-07 -3.44407 
1580 2 0.0472129 -27.7096 4.43915 1.52528e-07 -3.44407 
1901 2 0.0472123 -25.2083 1.22386 1.69044e-06 -3.44405 
1900 2 4.12121 -25.2083 1.22386 1.69096e-06 -3.44405 
1578 2 0.0472122 -24.8504 4.08252 1.3174e-07 -3.44407 
1577 2 4.12121 -24.8504 4.08252 1.3174e-07 -3.44407 
1582 2 6.15821 -26.459 2.83152 5.87552e-07 -3.44406 
1583 2 10.2322 -26.459 2.83152 5.87196e-07 -3.44406 
1585 2 8.19521 -27.7096 4.43915 1.52879e-07 -3.44407 
1909 2 8.19521 -25.2083 1.22386 1.68432e-06 -3.44405 
1584 2 8.19521 -24.8504 4.08252 1.32422e-07 -3.44407 
1588 2 2.08421 -23.5999 2.4749 8.55721e-07 -3.44406 
1589 2 4.12121 -21.9913 3.72589 1.21765e-07 -3.44408 
1590 2 0.0472112 -21.9913 3.72589 1.21766e-07 -3.44408 
1916 2 2.08421 -20.741 2.11831 1.26693e-06 -3.44406 
1917 2 4.12121 -22.3494 0.867246 3.18125e-06 -3.44404 
1918 2 0.0472115 -22.3494 0.867246 3.18071e-06 -3.44404 
1919 2 4.12121 -19.4907 0.510662 6.25904e-06 -3.44402 
1920 2 0.0472102 -19.4907 0.510662 6.25901e-06 -3.44402 
1597 2 6.15821 -23.5999 2.4749 8.50105e-07 -3.44406 
1598 2 10.2322 -23.5999 2.4749 8.49876e-07 -3.44406 
1599 2 8.19521 -21.9913 3.72589 1.2142e-07 -3.44408 
1926 2 6.15821 -20.741 2.11831 1.24932e-06 -3.44406 
1927 2 10.2322 -20.741 2.11831 1.24928e-06 -3.44406 
1928 2 8.19521 -22.3494 0.867246 3.16075e-06 -3.44404 
1929 2 8.19521 -19.4907 0.510661 6.18695e-06 -3.44403 
1593 2 4.12121 -19.1321 3.36928 3.62362e-07 -3.44409 
1594 2 0.0472096 -19.1321 3.36928 3.62267e-07 -3.44409 
1606 2 4.12121 -16.2729 3.01268 1.80171e-06 -3.44411 
1607 2 0.047207 -16.2729 3.01268 1.80132e-06 -3.44411 
1934 2 2.08421 -17.8821 1.76174 1.98386e-06 -3.44406 
1936 2 4.12121 -16.6322 0.154123 1.29212e-05 -3.444 
1937 2 0.0472077 -16.6322 0.154123 1.29217e-05 -3.444 
1609 2 2.08421 -17.5231 4.62018 1.74836e-06 -3.44411 
1604 2 8.19521 -19.1321 3.36928 3.52754e-07 -3.44409 
1614 2 8.19521 -16.2729 3.01268 1.74669e-06 -3.44411 
1940 2 6.15821 -17.8821 1.76174 1.92772e-06 -3.44406 
1941 2 10.2322 -17.8821 1.76174 1.92812e-06 -3.44406 
1944 2 8.19521 -16.6322 0.154122 1.26481e-05 -3.44401 
1617 2 6.15821 -17.5231 4.62018 1.67396e-06 -3.44411 
1618 2 10.2322 -17.5231 4.62018 1.674e-06 -3.44411 
1935 2 2.08421 -15.0233 1.40522 3.46003e-06 -3.44406 
1608 2 2.08421 -14.6636 4.2635 7.46649e-06 -3.44415 
1623 2 4.12121 -13.4135 2.65609 7.61639e-06 -3.44414 
1624 2 0.0472045 -13.4135 2.65609 7.61517e-06 -3.44414 
1625 2 2.08421 -11.8038 3.90679 2.71983e-05 -3.44421 
1949 2 2.08421 -12.1646 1.04876 6.98477e-06 -3.44406 
1942 2 6.15821 -15.0233 1.40521 3.28313e-06 -3.44406 
1943 2 10.2322 -15.0233 1.40521 3.28339e-06 -3.44406 
1615 2 6.15821 -14.6636 4.26351 7.11443e-06 -3.44414 
1616 2 10.2322 -14.6636 4.26351 7.11421e-06 -3.44414 
1631 2 8.19521 -13.4135 2.65609 7.35383e-06 -3.44414 
1632 2 6.15821 -11.8038 3.9068 2.55531e-05 -3.4442 
1633 2 10.2322 -11.8038 3.9068 2.55535e-05 -3.4442 
1961 2 10.2322 -12.1645 1.04876 6.44953e-06 -3.44406 
1964 2 6.15821 -12.1645 1.04876 6.44947e-06 -3.44406 
1621 2 4.12121 -10.5538 2.29951 2.76444e-05 -3.4442 
1622 2 0.047207 -10.5538 2.29951 2.76432e-05 -3.4442 
2294 2 4.12119 -7.69344 1.94294 9.12785e-05 -3.44429 
2313 2 0.0472274 -7.69344 1.94294 9.12798e-05 -3.44429 
1966 2 2.08421 -8.94328 3.55 9.08561e-05 -3.44431 
4147 1 2.08421 -9.30592 0.692411 1.62092e-05 -3.44405 
4137 1 2.08421 -6.44737 0.336237 4.15376e-05 -3.44402 
4132 1 8.19521 -10.5538 2.29951 2.63404e-05 -3.4442 
2306 2 8.19521 -7.69349 1.94293 8.42637e-05 -3.44428 
1978 2 10.2322 -8.94335 3.55 8.29941e-05 -3.4443 
1973 2 6.15819 -8.94335 3.55 8.29931e-05 -3.4443 
4168 1 6.15821 -9.30581 0.692398 1.46454e-05 -3.44407 
1630 2 10.2322 -9.30581 0.692398 1.4645e-05 -3.44407 
4144 1 10.2322 -6.44715 0.33619 3.69455e-05 -3.44408 
2312 2 6.15818 -6.44715 0.33619 3.69456e-05 -3.44408 
4191 1 2.08421 -6.08168 3.19308 0.000289795 -3.44449 
4902 1 4.12112 -4.83206 1.58637 0.00028593 -3.44445 
4199 1 0.0472885 -4.83206 1.58637 0.000285933 -3.44445 
4173 1 2.08421 -3.21808 2.83588 0.000908286 -3.44481 
1967 2 4.12113 -4.4743 4.44346 0.000195277 -3.44438 
1975 2 0.0472828 -4.4743 4.44346 0.000195271 -3.44438 
1977 2 10.2323 -6.08191 3.19305 0.00025157 -3.44445 
4200 1 6.15814 -6.08191 3.19305 0.000251571 -3.44445 
4143 1 8.19521 -4.83229 1.58634 0.000247628 -3.44442 
1976 2 6.15799 -3.21877 2.83585 0.000722005 -3.44468 
1990 1 10.2324 -3.21877 2.83585 0.000721997 -3.44468 
1979 2 8.19521 -4.47434 4.44325 0.000192277 -3.44438 
1983 1 2.08421 -0.350841 2.47787 0.00287545 -3.44537 
4126 1 4.12091 -1.61196 4.08586 0.000607635 -3.44459 
4157 1 0.0475061 -1.61196 4.08586 0.000607621 -3.44459 
2315 1 4.12101 -1.96876 1.22972 0.000879348 -3.44471 
2297 2 0.0474023 -1.96876 1.22972 0.000879349 -3.44471 
4263 1 4.11999 1.2529 3.72732 0.00184934 -3.44487 
2004 1 0.0484236 1.2529 3.72732 0.00184931 -3.44487 
1997 1 4.12098 0.898001 0.872684 0.00276491 -3.44516 
2334 1 0.0474325 0.898001 0.872684 0.00276491 -3.44516 
1991 1 8.19521 -1.61203 4.08545 0.000582709 -3.4446 
2321 1 8.19521 -1.96958 1.22985 0.000677654 -3.44461 
4205 1 6.15756 -0.352857 2.47835 0.00196963 -3.44503 
4109 1 10.2329 -0.352857 2.47836 0.00196961 -3.44503 
4250 1 8.19521 1.25251 3.72718 0.00164851 -3.44496 
4928 1 8.19521 0.895487 0.873926 0.00174287 -3.44483 
4740 1 2.0842 2.52322 2.11748 0.00951163 -3.44641 
4745 1 0.0512623 4.12233 3.36669 0.00559765 -3.44511 
4941 1 4.11715 4.12233 3.36669 0.00559771 -3.44511 
2009 1 0.0464134 3.77117 0.5145 0.00949123 -3.44596 
4145 1 4.122 3.77117 0.5145 0.00949117 -3.44596 
4787 1 2.0842 5.41042 1.75081 0.0341697 -3.44857 
4887 1 2.0842 5.69442 4.62007 0.00303346 -3.44212 
4764 1 6.15644 2.51741 2.12078 0.00509102 -3.44548 
4726 1 10.234 2.51741 2.12078 0.00509101 -3.44548 
2084 1 8.1952 4.12001 3.36916 0.00421111 -3.44543 
4214 1 8.1952 3.76426 0.519883 0.00431828 -3.44498 
1988 1 6.15452 5.3942 1.76396 0.0123885 -3.44579 
4824 1 10.2359 5.3942 1.76396 0.0123886 -3.44579 
4962 1 6.15354 5.69888 4.61967 0.00226232 -3.44416 
4260 1 10.2369 5.69888 4.61967 0.00226233 -3.44416 
2005 1 4.11119 6.99975 3.00196 0.0166388 -3.44491 
4874 1 2.0842 8.32167 1.36864 0.134435 -3.45341 
4248 1 2.0842 8.55173 4.25413 0.00638167 -3.44008 
4945 1 0.0572193 6.99975 3.00196 0.0166387 -3.44491 
4819 1 0.040076 6.65671 0.153671 0.0390406 -3.4473 
4709 1 4.12833 6.65671 0.153671 0.0390403 -3.4473 
4192 1 0.0640979 9.88812 2.62958 0.043682 -3.44275 
4853 1 4.10431 9.88812 2.62958 0.0436821 -3.44275 
4948 1 6.14743 8.55353 4.2621 0.00581302 -3.44389 
2090 1 6.15419 8.28087 1.40925 0.0284616 -3.44503 
4751 1 8.1952 6.99036 3.01346 0.0092345 -3.44546 
4644 1 10.243 8.55353 4.2621 0.00581305 -3.44389 
4983 1 10.2362 8.28087 1.40925 0.0284617 -3.44503 
4886 1 8.1952 6.63966 0.169938 0.0110005 -3.4446 
4975 1 8.1952 9.86305 2.66329 0.0177128 -3.44397 
4706 1 2.0842 11.4136 3.87381 0.0127461 -3.43796 
4704 1 4.1091 12.7831 2.24523 0.0840507 -3.4346 
4601 1 2.0842 11.2686 0.951532 0.527554 -3.46359 
4947 1 2.0842 14.2743 3.47182 0.120005 -3.43592 
4954 1 2.0842 14.2318 0.493759 1.87258 -3.479 
5003 1 0.0593015 12.7831 2.24523 0.0840506 -3.4346 
4501 1 6.21417 14.1143 0.722182 0.205477 -3.42443 
4883 1 6.14289 11.4048 3.90908 0.0135623 -3.44321 
4802 1 6.14136 14.258 3.57667 0.0543794 -3.43907 
4537 1 10.249 14.258 3.57667 0.0543793 -3.43907 
2026 1 6.16443 11.1835 1.05477 0.0648918 -3.44103 
4365 1 10.226 11.1835 1.05477 0.064892 -3.44103 
4847 1 8.1952 12.741 2.32929 0.0419525 -3.43905 
4922 1 10.2475 11.4048 3.90908 0.0135622 -3.44321 
4994 1 10.1762 14.1143 0.722181 0.205477 -3.42443 
4265 1 4.13636 15.6834 1.89526 0.367637 -3.44232 
2017 1 4.13636 18.5823 1.89525 0.367641 -3.44232 
4774 1 2.0842 17.1328 0.339989 4.32925 -3.47143 
2552 1 2.0842 17.1328 3.29181 0.221782 -3.44212 
4682 1 0.0320387 18.5823 1.89525 0.367641 -3.44232 
4589 1 0.0320395 15.6834 1.89526 0.367637 -3.44232 
4770 1 6.3109 17.1328 0.52012 0.504164 -3.41788 
4828 1 6.13933 17.1328 3.39809 0.194504 -3.44496 
4403 1 10.0795 17.1328 0.52012 0.504165 -3.41788 
4817 1 8.1952 18.6154 2.06387 0.182244 -3.42765 
4837 1 8.1952 15.6502 2.06388 0.182244 -3.42765 
4848 1 10.2511 17.1328 3.39809 0.194505 -3.44496 
4843 1 2.0842 19.9913 3.47181 0.120007 -3.43592 
4518 1 2.0842 20.0338 0.493754 1.87258 -3.479 
4514 1 4.1091 21.4825 2.24523 0.0840505 -3.4346 
4542 1 2.0842 22.997 0.951524 0.527556 -3.46359 
2122 1 0.0592997 21.4825 2.24523 0.0840509 -3.4346 
4805 1 2.0842 22.8521 3.8738 0.0127462 -3.43796 
4377 1 6.21417 20.1513 0.722178 0.205477 -3.42443 
4753 1 6.14136 20.0076 3.57667 0.0543803 -3.43907 
4590 1 10.249 20.0076 3.57667 0.0543801 -3.43907 
4371 1 10.1762 20.1513 0.722178 0.205477 -3.42443 
4387 1 6.16443 23.0821 1.05476 0.0648909 -3.44103 
2569 1 10.226 23.0821 1.05476 0.064891 -3.44103 
4490 1 8.1952 21.5246 2.32929 0.0419522 -3.43905 
4747 1 6.14289 22.8609 3.90907 0.0135625 -3.44321 
4998 1 10.2475 22.8609 3.90907 0.0135625 -3.44321 
2549 1 0.0640951 24.3775 2.62957 0.0436821 -3.44275 
4314 1 2.0842 25.9439 1.36863 0.134434 -3.45341 
4538 1 4.11118 27.2659 3.00195 0.0166385 -3.44491 
4593 1 0.0572152 27.2659 3.00195 0.0166386 -3.44491 
4621 1 2.0842 25.7139 4.25413 0.00638183 -3.44008 
2400 1 4.1043 24.3775 2.62957 0.0436818 -3.44275 
4487 1 0.0400714 27.6089 0.153661 0.0390392 -3.4473 
4481 1 4.12833 27.6089 0.153661 0.0390395 -3.4473 
4378 1 8.1952 24.4026 2.66328 0.0177123 -3.44397 
4522 1 10.2362 25.9847 1.40924 0.0284607 -3.44503 
4353 1 6.15418 25.9847 1.40924 0.0284608 -3.44503 
4361 1 8.1952 27.2753 3.01345 0.00923417 -3.44546 
2465 1 10.243 25.7121 4.26209 0.0058132 -3.44389 
4364 1 6.14743 25.7121 4.26209 0.00581319 -3.44389 
4328 1 8.1952 27.626 0.169928 0.0109997 -3.4446 
4478 1 2.0842 28.8552 1.75079 0.0341686 -3.44857 
2554 1 2.0842 28.5712 4.62006 0.00303361 -3.44212 
4321 1 4.12199 30.4944 0.514487 0.00949034 -3.44596 
4456 1 0.0464077 30.4944 0.514487 0.0094903 -3.44596 
4476 1 2.0842 31.7424 2.11747 0.00951083 -3.44641 
2481 1 4.11714 30.1433 3.36668 0.00559747 -3.44511 
2379 1 0.0512569 30.1433 3.36668 0.00559746 -3.44511 
4306 1 6.15452 28.8714 1.76395 0.0123878 -3.44579 
2476 1 10.2359 28.8714 1.76395 0.0123878 -3.44579 
2405 1 6.15354 28.5667 4.61965 0.00226244 -3.44416 
2463 1 10.2369 28.5667 4.61965 0.00226245 -3.44416 
4443 1 8.1952 30.5014 0.51987 0.00431765 -3.44498 
4468 1 10.234 31.7482 2.12076 0.00509041 -3.44548 
4315 1 6.15643 31.7482 2.12076 0.00509042 -3.44548 
2570 1 8.1952 30.1456 3.36915 0.0042109 -3.44543 
2398 1 4.12097 33.3676 0.872668 0.00276428 -3.44516 
2401 1 0.0474255 33.3676 0.872668 0.00276428 -3.44516 
4430 1 4.11998 33.0127 3.7273 0.00184917 -3.44487 
4446 1 0.0484168 33.0127 3.7273 0.00184916 -3.44487 
2490 1 2.0842 34.6165 2.47785 0.00287487 -3.44537 
2415 1 0.0473938 36.2344 1.2297 0.000878906 -3.44471 
2411 1 4.121 36.2344 1.2297 0.000878904 -3.44471 
2491 1 4.1209 35.8776 4.08584 0.000607521 -3.44459 
2492 1 0.0474977 35.8776 4.08584 0.000607517 -3.44459 
2404 1 8.1952 33.3701 0.87391 0.00174238 -3.44483 
4510 1 8.1952 33.0131 3.72716 0.00164837 -3.44496 
2418 1 6.15755 34.6185 2.47834 0.00196917 -3.44503 
2496 1 10.2328 34.6185 2.47834 0.00196916 -3.44503 
4447 1 8.1952 36.2352 1.22983 0.000677277 -3.44461 
4341 1 8.1952 35.8776 4.08543 0.000582611 -3.4446 
2412 1 2.0842 37.4837 2.83586 0.000907897 -3.44481 
2493 1 4.12112 38.7399 4.44344 0.0001952 -3.44438 
2494 1 0.047273 38.7399 4.44344 0.0001952 -3.44438 
2413 1 4.12111 39.0977 1.58635 0.000285621 -3.44445 
2414 1 0.0472787 39.0977 1.58635 0.000285623 -3.44445 
2506 1 2.0842 40.3473 3.19306 0.000289527 -3.44449 
2431 1 2.0842 40.713 0.336221 4.15791e-05 -3.44402 
2419 1 6.15798 37.4844 2.83583 0.000721665 -3.44468 
2420 1 10.2324 37.4844 2.83583 0.000721657 -3.44468 
2501 1 8.1952 38.74 4.44323 0.000192205 -3.44438 
2423 1 8.1952 39.0979 1.58632 0.000247341 -3.44442 
2514 1 6.15813 40.3475 3.19303 0.000251323 -3.44445 
2515 1 10.2323 40.3475 3.19303 0.000251324 -3.44445 
2439 1 6.15817 40.7128 0.336173 3.69635e-05 -3.44408 
2440 1 10.2322 40.7128 0.336173 3.69633e-05 -3.44408 
2429 1 0.0472162 41.9591 1.94292 9.10664e-05 -3.44429 
2428 1 4.12118 41.9591 1.94292 9.10643e-05 -3.44429 
2430 1 2.0842 43.5715 0.692395 1.62536e-05 -3.44405 
2507 1 2.0842 43.2089 3.54998 9.06727e-05 -3.44431 
2443 1 4.1212 44.8194 2.29949 2.7498e-05 -3.4442 
2446 1 0.0471944 44.8194 2.29949 2.74984e-05 -3.4442 
2436 1 8.1952 41.9591 1.94291 8.40559e-05 -3.44428 
2437 1 6.1582 43.5714 0.692382 1.46765e-05 -3.44407 
2438 1 10.2322 43.5714 0.692382 1.46767e-05 -3.44407 
2516 1 6.15818 43.209 3.54998 8.28165e-05 -3.4443 
2517 1 10.2322 43.209 3.54998 8.28166e-05 -3.4443 
2452 1 8.1952 44.8194 2.29949 2.61997e-05 -3.4442 