ITEM: TIMESTEP
0
ITEM: NUMBER OF ATOMS
4018
ITEM: BOX BOUNDS xy xz yz pp ff pp
-2.0369999999999999e+00 1.2222000000000000e+01 0.0000000000000000e+00
-1.2225272342000000e+02 1.2225272342000000e+02 -2.0369999999999999e+00
0.0000000000000000e+00 2.2774352351000001e+01 0.0000000000000000e+00
ITEM: ATOMS id type x y z c_csym c_eng 
328 1 2.05307 -99.8437 1.99803 9.83828e-07 -3.44409 
439 1 10.2011 -100.027 12.3833 1.1658e-06 -3.44405 
3 1 4.09007 -120.318 3.60464 13.9665 -3.13477 
4 1 2.05307 -120.619 1.60217 16.1991 -3.03025 
336 1 10.2011 -99.8437 1.99803 9.83537e-07 -3.44409 
435 1 6.12707 -100.027 12.3833 1.16579e-06 -3.44405 
7 1 8.16407 -120.318 3.60464 13.9665 -3.13477 
8 1 6.12707 -120.619 1.60217 16.1991 -3.03025 
332 1 6.12707 -99.8437 1.99803 9.83932e-07 -3.44409 
431 1 2.05307 -100.027 12.3833 1.1658e-06 -3.44405 
11 1 0.0160704 -120.318 3.60464 13.9665 -3.13477 
12 1 10.2011 -120.619 1.60217 16.1991 -3.03025 
407 1 2.05307 -98.5686 20.3991 1.84024e-07 -3.44406 
426 1 8.16407 -98.9335 18.3947 2.02126e-06 -3.44409 
15 1 2.05307 -120.946 22.3903 24.0076 -3.03236 
16 1 0.0160701 -121.278 20.4132 23.8023 -3.03537 
415 1 10.2011 -98.5686 20.3991 1.84183e-07 -3.44406 
422 1 4.09007 -98.9335 18.3947 2.02045e-06 -3.44409 
19 1 6.12707 -120.946 22.3903 24.0076 -3.03236 
20 1 4.09007 -121.278 20.4132 23.8023 -3.03537 
411 1 6.12707 -98.5686 20.3991 1.84095e-07 -3.44406 
418 1 0.0160679 -98.9335 18.3947 2.02011e-06 -3.44409 
23 1 10.2011 -120.946 22.3903 24.0076 -3.03236 
24 1 8.16407 -121.278 20.4132 23.8023 -3.03537 
459 1 10.2011 -99.1137 6.00696 4.92925e-07 -3.44408 
390 1 6.12707 -103.122 6.73728 2.89542e-05 -3.44396 
27 1 2.05307 -121.605 18.4631 22.2716 -3.00865 
28 1 0.0160701 -121.923 16.51 34.8525 -2.76535 
457 1 6.12707 -99.1137 6.00696 4.93075e-07 -3.44408 
389 1 6.12707 -105.49 5.09851 6.73496e-05 -3.44391 
31 1 6.12707 -121.605 18.4631 22.2716 -3.00865 
32 1 4.09007 -121.923 16.51 34.8525 -2.76535 
455 1 2.05307 -99.1137 6.00696 4.9305e-07 -3.44408 
388 1 4.09007 -105.127 7.102 5.95519e-05 -3.44388 
35 1 10.2011 -121.605 18.4631 22.2716 -3.00865 
36 1 8.16407 -121.923 16.51 34.8525 -2.76535 
452 1 10.2011 -98.3847 10.0154 5.32867e-06 -3.44402 
438 1 8.16407 -99.6628 14.3867 3.62533e-06 -3.4441 
448 1 6.12707 -98.3847 10.0154 5.3302e-06 -3.44402 
434 1 4.09007 -99.6628 14.3867 3.62674e-06 -3.4441 
444 1 2.05307 -98.3847 10.0154 5.33034e-06 -3.44402 
430 1 0.0160681 -99.6628 14.3867 3.6251e-06 -3.4441 
449 1 4.09007 -98.749 8.01134 3.36249e-06 -3.44404 
419 1 2.05307 -99.2984 16.3905 5.16566e-06 -3.44411 
453 1 8.16407 -98.749 8.01134 3.36127e-06 -3.44404 
427 1 10.2011 -99.2984 16.3905 5.16483e-06 -3.44411 
445 1 0.0160678 -98.749 8.01134 3.36149e-06 -3.44404 
423 1 6.12707 -99.2984 16.3905 5.1671e-06 -3.44411 
331 1 8.16407 -99.4787 4.00244 1.06791e-06 -3.4441 
335 1 0.0160677 -99.4787 4.00244 1.06807e-06 -3.4441 
327 1 4.09007 -99.4787 4.00244 1.06823e-06 -3.4441 
52 1 2.05307 -118.281 3.25057 0.00678064 -3.41919 
53 1 4.09007 -118.618 1.27177 0.00413215 -3.41568 
54 1 4.09007 -116.257 2.91059 0.00112748 -3.44329 
55 1 2.05307 -116.601 0.919733 0.00299378 -3.44398 
56 1 6.12707 -118.281 3.25057 0.00678064 -3.41919 
57 1 8.16407 -118.618 1.27177 0.00413216 -3.41568 
58 1 8.16407 -116.257 2.91059 0.00112747 -3.44329 
59 1 6.12707 -116.601 0.919733 0.00299381 -3.44398 
60 1 10.2011 -118.281 3.25057 0.00678063 -3.41919 
61 1 0.0160701 -118.618 1.27177 0.00413218 -3.41568 
62 1 0.0160698 -116.257 2.91059 0.00112747 -3.44329 
63 1 10.2011 -116.601 0.919733 0.00299377 -3.44398 
64 1 0.0160701 -118.947 22.055 0.00388034 -3.41462 
65 1 2.05307 -119.281 20.0642 0.0193917 -3.41088 
66 1 2.05307 -116.946 21.6999 0.00767993 -3.44324 
67 1 0.01607 -117.304 19.6888 0.00939857 -3.44224 
68 1 4.09007 -118.947 22.055 0.00388037 -3.41462 
69 1 6.12707 -119.281 20.0642 0.0193917 -3.41088 
70 1 6.12707 -116.946 21.6999 0.00767994 -3.44324 
71 1 4.09007 -117.304 19.6888 0.00939862 -3.44224 
72 1 8.16407 -118.947 22.055 0.00388032 -3.41462 
73 1 10.2011 -119.281 20.0642 0.0193916 -3.41088 
74 1 10.2011 -116.946 21.6999 0.00767989 -3.44324 
75 1 8.16407 -117.304 19.6888 0.00939865 -3.44224 
76 1 0.0160701 -119.635 18.0591 0.0498809 -3.39957 
77 1 2.05307 -120.075 16.0009 7.45461 -3.3169 
78 1 2.05307 -117.703 17.6544 0.0140378 -3.44575 
79 1 0.0160699 -118.108 15.6363 0.0482133 -3.44559 
80 1 4.09007 -119.635 18.0591 0.049881 -3.39957 
81 1 6.12707 -120.075 16.0009 7.45461 -3.3169 
82 1 6.12707 -117.703 17.6544 0.0140378 -3.44575 
83 1 4.09007 -118.108 15.6363 0.0482133 -3.44559 
84 1 8.16407 -119.635 18.0591 0.0498812 -3.39957 
85 1 10.2011 -120.075 16.0009 7.45461 -3.3169 
86 1 10.2011 -117.703 17.6544 0.0140379 -3.44575 
87 1 8.16407 -118.108 15.6363 0.0482132 -3.44559 
88 1 0.0160698 -120.49 13.9972 13.9083 -3.13531 
89 1 2.05307 -120.789 11.9967 24.0412 -3.0327 
90 1 2.05307 -118.452 13.6431 0.00600231 -3.41942 
91 1 0.0160698 -118.785 11.6665 0.00745047 -3.41545 
92 1 4.09007 -120.49 13.9972 13.9083 -3.13531 
93 1 6.12707 -120.789 11.9967 24.0412 -3.0327 
94 1 6.12707 -118.452 13.6431 0.00600233 -3.41942 
95 1 4.09007 -118.785 11.6665 0.00745048 -3.41545 
96 1 8.16407 -120.49 13.9972 13.9083 -3.13531 
97 1 10.2011 -120.789 11.9967 24.0412 -3.0327 
98 1 10.2011 -118.452 13.6431 0.00600232 -3.41942 
99 1 8.16407 -118.785 11.6665 0.00745047 -3.41545 
100 1 0.0160701 -121.111 10.0181 23.6803 -3.03486 
101 1 2.05307 -121.433 8.06955 22.1996 -3.0088 
102 1 2.05307 -119.112 9.67575 0.0223639 -3.41137 
103 1 0.01607 -119.463 7.66884 0.052549 -3.39959 
104 1 4.09007 -121.111 10.0181 23.6803 -3.03486 
105 1 6.12707 -121.433 8.06955 22.1996 -3.0088 
106 1 6.12707 -119.112 9.67575 0.0223638 -3.41137 
107 1 4.09007 -119.463 7.66884 0.0525489 -3.39959 
108 1 8.16407 -121.111 10.0181 23.6803 -3.03486 
109 1 10.2011 -121.433 8.06955 22.1996 -3.0088 
110 1 10.2011 -119.112 9.67575 0.022364 -3.41137 
111 1 8.16407 -119.463 7.66884 0.0525489 -3.39959 
112 1 0.0160703 -121.749 6.11709 34.7899 -2.76576 
113 1 2.05307 -119.901 5.60947 7.46484 -3.31671 
114 1 4.09007 -121.749 6.11709 34.7899 -2.76576 
115 1 6.12707 -119.901 5.60948 7.46484 -3.31671 
116 1 8.16407 -121.749 6.11709 34.7899 -2.76576 
117 1 10.2011 -119.901 5.60947 7.46484 -3.31671 
118 1 4.09007 -113.887 4.54845 0.000294892 -3.44359 
119 1 2.05307 -111.871 4.18993 0.000490791 -3.44342 
120 1 8.16407 -113.887 4.54845 0.000294894 -3.44359 
121 1 6.12707 -111.871 4.18994 0.000490798 -3.44342 
122 1 0.0160695 -113.887 4.54845 0.000294893 -3.44359 
123 1 10.2011 -111.871 4.18993 0.000490792 -3.44342 
124 1 2.05307 -114.237 2.55436 0.0014195 -3.44358 
125 1 4.09007 -114.589 0.556992 0.00313834 -3.44333 
126 1 4.09007 -112.227 2.19079 0.00122623 -3.44329 
127 1 2.05307 -112.589 0.186292 0.000922248 -3.44349 
128 1 6.12707 -114.237 2.55436 0.00141952 -3.44358 
129 1 8.16407 -114.589 0.556992 0.00313831 -3.44333 
130 1 8.16407 -112.227 2.19079 0.00122621 -3.44329 
131 1 6.12707 -112.589 0.186293 0.000922251 -3.44349 
132 1 10.2011 -114.237 2.55436 0.00141949 -3.44358 
133 1 0.0160696 -114.589 0.556992 0.00313829 -3.44333 
134 1 0.0160693 -112.227 2.19079 0.00122619 -3.44329 
135 1 10.2011 -112.589 0.186292 0.000922243 -3.44349 
136 1 0.0160696 -114.951 21.3248 0.00269117 -3.44365 
137 1 2.05307 -115.33 19.3062 0.00189343 -3.44578 
138 1 2.05307 -112.961 20.9497 0.000336366 -3.44447 
139 1 0.0160694 -113.337 18.938 0.0021836 -3.44555 
140 1 4.09007 -114.951 21.3248 0.0026912 -3.44365 
141 1 6.12707 -115.33 19.3062 0.00189342 -3.44578 
142 1 6.12707 -112.961 20.9497 0.000336371 -3.44447 
143 1 4.09007 -113.337 18.938 0.0021836 -3.44555 
144 1 8.16407 -114.951 21.3248 0.00269119 -3.44365 
145 1 10.2011 -115.33 19.3062 0.00189344 -3.44578 
146 1 10.2011 -112.961 20.9497 0.000336368 -3.44447 
147 1 8.16407 -113.337 18.938 0.00218361 -3.44555 
148 1 0.0160697 -115.715 17.2896 0.00917061 -3.44773 
149 1 2.05307 -116.082 15.2898 0.0035977 -3.4456 
150 1 2.05307 -113.705 16.9331 0.00144054 -3.44488 
151 1 0.0160694 -114.061 14.9356 0.000586713 -3.4432 
152 1 4.09007 -115.715 17.2896 0.00917054 -3.44773 
153 1 6.12707 -116.082 15.2898 0.00359767 -3.4456 
154 1 6.12707 -113.705 16.9331 0.00144053 -3.44488 
155 1 4.09007 -114.061 14.9356 0.00058672 -3.4432 
156 1 8.16407 -115.715 17.2896 0.00917057 -3.44773 
157 1 10.2011 -116.082 15.2898 0.00359768 -3.4456 
158 1 10.2011 -113.705 16.9331 0.00144055 -3.44488 
159 1 8.16407 -114.061 14.9356 0.000586718 -3.4432 
160 1 0.0160697 -116.428 13.3006 0.00283633 -3.44274 
161 1 2.05307 -116.774 11.3078 0.00881094 -3.44255 
162 1 2.05307 -114.414 12.9386 0.00304524 -3.44293 
163 1 0.0160696 -114.777 10.9338 0.00287673 -3.44332 
164 1 4.09007 -116.428 13.3006 0.0028363 -3.44274 
165 1 6.12707 -116.774 11.3078 0.00881089 -3.44255 
166 1 6.12707 -114.414 12.9386 0.00304522 -3.44293 
167 1 4.09007 -114.777 10.9338 0.0028767 -3.44332 
168 1 8.16407 -116.428 13.3006 0.0028363 -3.44274 
169 1 10.2011 -116.774 11.3078 0.00881097 -3.44255 
170 1 10.2011 -114.414 12.9386 0.00304524 -3.44293 
171 1 8.16407 -114.777 10.9338 0.00287673 -3.44332 
172 1 0.0160697 -117.133 9.30123 0.0106553 -3.44247 
173 1 2.05307 -117.531 7.26623 0.0134036 -3.44579 
174 1 2.05307 -115.157 8.91663 0.00182098 -3.44568 
175 1 0.0160696 -115.543 6.90136 0.00936962 -3.44777 
176 1 4.09007 -117.133 9.30123 0.0106552 -3.44247 
177 1 6.12707 -117.531 7.26623 0.0134035 -3.44579 
178 1 6.12707 -115.157 8.91663 0.00182098 -3.44568 
179 1 4.09007 -115.543 6.90136 0.00936962 -3.44777 
180 1 8.16407 -117.133 9.30123 0.0106552 -3.44247 
181 1 10.2011 -117.531 7.26623 0.0134036 -3.44579 
182 1 10.2011 -115.157 8.91663 0.00182097 -3.44568 
183 1 8.16407 -115.543 6.90136 0.0093696 -3.44777 
184 1 0.01607 -117.936 5.24605 0.0476083 -3.44541 
185 1 2.05307 -115.91 4.90077 0.00433492 -3.44574 
186 1 4.09007 -117.936 5.24605 0.0476081 -3.44541 
187 1 6.12707 -115.91 4.90077 0.00433491 -3.44574 
188 1 8.16407 -117.936 5.24605 0.0476081 -3.44541 
189 1 10.2011 -115.91 4.90077 0.00433488 -3.44574 
190 1 4.09007 -109.862 3.82653 0.000463468 -3.44356 
191 1 2.05307 -107.858 3.46032 0.000155978 -3.44383 
192 1 8.16407 -109.862 3.82653 0.000463468 -3.44356 
193 1 6.12707 -107.858 3.46032 0.000155976 -3.44383 
194 1 0.016069 -109.862 3.82653 0.000463462 -3.44356 
195 1 10.2011 -107.858 3.46032 0.000155976 -3.44383 
196 1 2.05307 -110.224 1.82288 0.000366457 -3.4437 
197 1 2.05307 -110.592 22.5899 7.83125e-05 -3.44422 
198 1 4.09007 -108.224 1.4547 2.79954e-05 -3.44411 
199 1 0.016069 -108.592 22.2225 0.000126502 -3.44442 
200 1 6.12707 -110.224 1.82288 0.000366451 -3.4437 
201 1 6.12707 -110.592 22.5899 7.83149e-05 -3.44422 
202 1 8.16407 -108.224 1.4547 2.79956e-05 -3.44411 
203 1 4.09007 -108.592 22.2225 0.000126507 -3.44442 
204 1 10.2011 -110.224 1.82288 0.000366449 -3.4437 
205 1 10.2011 -110.592 22.5899 7.83146e-05 -3.44422 
206 1 0.0160689 -108.224 1.4547 2.79963e-05 -3.44411 
207 1 8.16407 -108.592 22.2225 0.000126509 -3.44442 
208 1 0.0160692 -110.963 20.5815 0.000534451 -3.44476 
209 1 2.05307 -111.331 18.5761 0.000532717 -3.4446 
210 1 2.05307 -108.959 20.2172 0.000179914 -3.44439 
211 1 0.0160691 -109.323 18.2142 2.99177e-05 -3.44399 
212 1 4.09007 -110.963 20.5815 0.000534458 -3.44476 
213 1 6.12707 -111.331 18.5761 0.000532715 -3.4446 
214 1 6.12707 -108.959 20.2172 0.000179913 -3.44439 
215 1 4.09007 -109.323 18.2142 2.99187e-05 -3.44399 
216 1 8.16407 -110.963 20.5815 0.000534458 -3.44476 
217 1 10.2011 -111.331 18.5761 0.000532725 -3.4446 
218 1 10.2011 -108.959 20.2172 0.000179913 -3.44439 
219 1 8.16407 -109.323 18.2142 2.99192e-05 -3.44399 
220 1 0.0160692 -111.692 16.5747 0.000110947 -3.44377 
221 1 2.05307 -112.05 14.5739 0.000850242 -3.44315 
222 1 2.05307 -109.684 16.2119 0.00020782 -3.44361 
223 1 0.0160692 -110.047 14.2074 0.000270063 -3.44366 
224 1 4.09007 -111.692 16.5747 0.000110952 -3.44377 
225 1 6.12707 -112.05 14.5739 0.000850234 -3.44315 
226 1 6.12707 -109.684 16.2119 0.000207824 -3.44361 
227 1 4.09007 -110.047 14.2074 0.00027006 -3.44366 
228 1 8.16407 -111.692 16.5747 0.000110953 -3.44377 
229 1 10.2011 -112.05 14.5739 0.00085024 -3.44315 
230 1 10.2011 -109.684 16.2119 0.000207822 -3.44361 
231 1 8.16407 -110.047 14.2074 0.000270056 -3.44366 
232 1 0.0160694 -112.413 12.5692 0.000879106 -3.44333 
233 1 2.05307 -112.786 10.5589 0.000338505 -3.44438 
234 1 2.05307 -110.416 12.1998 7.81065e-05 -3.44416 
235 1 0.0160693 -110.787 10.1916 0.000642443 -3.44473 
236 1 4.09007 -112.413 12.5692 0.000879096 -3.44333 
237 1 6.12707 -112.786 10.5589 0.000338507 -3.44438 
238 1 6.12707 -110.416 12.1998 7.81097e-05 -3.44416 
239 1 4.09007 -110.787 10.1916 0.000642451 -3.44473 
240 1 8.16407 -112.413 12.5692 0.000879098 -3.44333 
241 1 10.2011 -112.786 10.5589 0.000338498 -3.44438 
242 1 10.2011 -110.416 12.1998 7.8107e-05 -3.44416 
243 1 8.16407 -110.787 10.1916 0.000642463 -3.44473 
244 1 0.0160694 -113.162 8.54826 0.0023702 -3.44545 
245 1 2.05307 -113.531 6.5445 0.00192319 -3.44494 
246 1 2.05307 -111.155 8.18702 0.000780062 -3.44463 
247 1 0.0160692 -111.515 6.1874 0.000142587 -3.44392 
248 1 4.09007 -113.162 8.54826 0.00237023 -3.44545 
249 1 6.12707 -113.531 6.5445 0.0019232 -3.44494 
250 1 6.12707 -111.155 8.18702 0.000780081 -3.44463 
251 1 4.09007 -111.515 6.1874 0.00014259 -3.44392 
252 1 8.16407 -113.162 8.54826 0.00237021 -3.44545 
253 1 10.2011 -113.531 6.5445 0.00192316 -3.44494 
254 1 10.2011 -111.155 8.18702 0.000780057 -3.44463 
255 1 8.16407 -111.515 6.1874 0.000142588 -3.44392 
256 1 4.09007 -105.855 3.0937 1.52593e-05 -3.44406 
257 1 4.09007 -103.487 4.73285 9.47245e-06 -3.44405 
258 1 2.05307 -103.852 2.72786 5.38815e-06 -3.44415 
259 1 8.16407 -105.855 3.0937 1.52589e-05 -3.44406 
260 1 8.16407 -103.487 4.73285 9.47091e-06 -3.44405 
261 1 6.12707 -103.852 2.72786 5.38751e-06 -3.44415 
262 1 0.0160687 -105.855 3.0937 1.52592e-05 -3.44406 
263 1 0.0160684 -103.487 4.73285 9.47021e-06 -3.44405 
264 1 10.2011 -103.852 2.72786 5.38798e-06 -3.44415 
265 1 2.05307 -106.222 1.08816 2.76691e-05 -3.44424 
266 1 2.05307 -106.588 21.8575 5.70014e-05 -3.44426 
267 1 4.09007 -104.218 0.723008 1.68843e-05 -3.44418 
268 1 0.0160686 -104.583 21.4932 5.35659e-06 -3.44408 
269 1 6.12707 -106.222 1.08816 2.76686e-05 -3.44424 
270 1 6.12707 -106.588 21.8575 5.70044e-05 -3.44426 
271 1 8.16407 -104.218 0.723008 1.68851e-05 -3.44418 
272 1 4.09007 -104.583 21.4932 5.35677e-06 -3.44408 
273 1 10.2011 -106.222 1.08816 2.76713e-05 -3.44424 
274 1 10.2011 -106.588 21.8575 5.70048e-05 -3.44426 
275 1 0.0160684 -104.218 0.723008 1.68862e-05 -3.44418 
276 1 8.16407 -104.583 21.4932 5.35665e-06 -3.44408 
277 1 0.0160688 -106.953 19.8537 1.16419e-05 -3.44406 
278 1 2.05307 -107.316 17.8505 4.44176e-05 -3.44383 
279 1 2.05307 -104.947 19.4894 7.83589e-06 -3.44395 
280 1 0.0160688 -105.311 17.4853 2.02481e-05 -3.44393 
281 1 4.09007 -106.953 19.8537 1.16411e-05 -3.44406 
282 1 6.12707 -107.316 17.8505 4.44221e-05 -3.44383 
283 1 6.12707 -104.947 19.4894 7.8377e-06 -3.44395 
284 1 4.09007 -105.311 17.4853 2.02528e-05 -3.44393 
285 1 8.16407 -106.953 19.8537 1.16413e-05 -3.44406 
286 1 10.2011 -107.316 17.8505 4.44182e-05 -3.44383 
287 1 10.2011 -104.947 19.4894 7.83601e-06 -3.44395 
288 1 8.16407 -105.311 17.4853 2.02517e-05 -3.44393 
289 1 0.016069 -107.68 15.8463 7.83285e-05 -3.44383 
290 1 2.05307 -108.046 13.8403 2.10014e-05 -3.4441 
291 1 2.05307 -105.677 15.4803 6.03811e-06 -3.44406 
292 1 0.0160689 -106.044 13.4748 5.21641e-05 -3.44426 
293 1 4.09007 -107.68 15.8463 7.83349e-05 -3.44383 
294 1 6.12707 -108.046 13.8403 2.10025e-05 -3.4441 
295 1 6.12707 -105.677 15.4803 6.0381e-06 -3.44406 
296 1 4.09007 -106.044 13.4748 5.21613e-05 -3.44426 
297 1 8.16407 -107.68 15.8463 7.83322e-05 -3.44383 
298 1 10.2011 -108.046 13.8403 2.10016e-05 -3.4441 
299 1 10.2011 -105.677 15.4803 6.03783e-06 -3.44406 
300 1 8.16407 -106.044 13.4748 5.21664e-05 -3.44426 
301 1 0.0160691 -108.415 11.8337 0.000179547 -3.44442 
302 1 2.05307 -108.781 9.82879 0.000291713 -3.44443 
303 1 2.05307 -106.41 11.4701 0.000105249 -3.4443 
304 1 0.0160689 -106.773 9.46707 3.95096e-05 -3.44413 
305 1 4.09007 -108.415 11.8337 0.00017955 -3.44442 
306 1 6.12707 -108.781 9.82879 0.000291728 -3.44443 
307 1 6.12707 -106.41 11.4701 0.000105253 -3.4443 
308 1 4.09007 -106.773 9.46707 3.95135e-05 -3.44413 
309 1 8.16407 -108.415 11.8337 0.00017956 -3.44442 
310 1 10.2011 -108.781 9.82879 0.000291716 -3.44443 
311 1 10.2011 -106.41 11.4701 0.000105253 -3.4443 
312 1 8.16407 -106.773 9.46707 3.95109e-05 -3.44413 
313 1 0.0160691 -109.144 7.82697 7.85088e-05 -3.44408 
314 1 2.05307 -109.503 5.82709 0.000147563 -3.4437 
315 1 2.05307 -107.134 7.46544 4.15407e-05 -3.44388 
316 1 0.0160689 -107.495 5.46372 0.000168708 -3.44375 
317 1 4.09007 -109.144 7.82697 7.85141e-05 -3.44408 
318 1 6.12707 -109.503 5.82709 0.000147567 -3.4437 
319 1 6.12707 -107.134 7.46544 4.15428e-05 -3.44388 
320 1 4.09007 -107.495 5.46372 0.000168708 -3.44375 
321 1 8.16407 -109.144 7.82697 7.851e-05 -3.44408 
322 1 10.2011 -109.503 5.82709 0.000147569 -3.4437 
323 1 10.2011 -107.134 7.46544 4.15439e-05 -3.44388 
324 1 8.16407 -107.495 5.46372 0.00016871 -3.44375 
325 1 2.05307 -101.483 4.36746 1.08078e-06 -3.4441 
326 1 4.09007 -101.848 2.36277 4.54318e-06 -3.44413 
329 1 6.12707 -101.483 4.36746 1.08062e-06 -3.4441 
330 1 8.16407 -101.848 2.36277 4.54234e-06 -3.44413 
333 1 10.2011 -101.483 4.36746 1.08059e-06 -3.4441 
334 1 0.0160681 -101.848 2.36277 4.54313e-06 -3.44413 
337 1 2.05307 -102.213 0.358394 2.40842e-06 -3.44409 
338 1 2.05307 -102.578 21.1287 1.00156e-06 -3.44401 
458 1 8.16407 -101.118 6.3721 5.78075e-06 -3.44404 
393 1 10.2011 -103.122 6.73728 2.89513e-05 -3.44396 
341 1 6.12707 -102.213 0.358394 2.40821e-06 -3.44409 
342 1 6.12707 -102.578 21.1287 1.002e-06 -3.44401 
456 1 4.09007 -101.118 6.3721 5.78213e-06 -3.44404 
392 1 10.2011 -105.49 5.09851 6.73473e-05 -3.44391 
345 1 10.2011 -102.213 0.358394 2.40812e-06 -3.44409 
346 1 10.2011 -102.578 21.1287 1.00184e-06 -3.44401 
454 1 0.0160682 -101.118 6.3721 5.78074e-06 -3.44404 
391 1 8.16407 -105.127 7.102 5.95527e-05 -3.44388 
349 1 0.0160685 -102.942 19.1245 4.41407e-06 -3.44399 
350 1 2.05307 -103.308 17.1199 1.66575e-06 -3.44405 
351 1 2.05307 -100.938 18.7595 4.69653e-07 -3.44405 
352 1 0.0160684 -101.303 16.755 5.34834e-06 -3.44411 
353 1 4.09007 -102.942 19.1245 4.41568e-06 -3.44399 
354 1 6.12707 -103.308 17.1199 1.66595e-06 -3.44405 
355 1 6.12707 -100.938 18.7595 4.69734e-07 -3.44405 
356 1 4.09007 -101.303 16.755 5.34857e-06 -3.44411 
357 1 8.16407 -102.942 19.1245 4.41514e-06 -3.44399 
358 1 10.2011 -103.308 17.1199 1.66577e-06 -3.44405 
359 1 10.2011 -100.938 18.7595 4.698e-07 -3.44405 
360 1 8.16407 -101.303 16.755 5.3495e-06 -3.44411 
361 1 0.0160687 -103.673 15.1151 1.59921e-05 -3.44416 
362 1 2.05307 -104.039 13.1106 3.77453e-05 -3.44421 
363 1 2.05307 -101.668 14.7507 1.37091e-05 -3.44415 
364 1 0.0160685 -102.033 12.747 8.29373e-06 -3.44411 
365 1 4.09007 -103.673 15.1151 1.5991e-05 -3.44416 
366 1 6.12707 -104.039 13.1106 3.77451e-05 -3.44421 
367 1 6.12707 -101.668 14.7507 1.371e-05 -3.44415 
368 1 4.09007 -102.033 12.747 8.29457e-06 -3.44411 
369 1 8.16407 -103.673 15.1151 1.59934e-05 -3.44416 
370 1 10.2011 -104.039 13.1106 3.7745e-05 -3.44421 
371 1 10.2011 -101.668 14.7507 1.37085e-05 -3.44415 
372 1 8.16407 -102.033 12.747 8.29317e-06 -3.44411 
373 1 0.0160688 -104.403 11.1072 1.85533e-05 -3.44413 
374 1 2.05307 -104.765 9.10456 1.15581e-05 -3.44398 
375 1 2.05307 -102.396 10.7439 3.46644e-06 -3.44403 
376 1 0.0160686 -102.759 8.74085 2.07793e-05 -3.44396 
377 1 4.09007 -104.403 11.1072 1.85546e-05 -3.44413 
378 1 6.12707 -104.765 9.10456 1.15591e-05 -3.44398 
379 1 6.12707 -102.396 10.7439 3.46625e-06 -3.44403 
380 1 4.09007 -102.759 8.74085 2.07814e-05 -3.44396 
381 1 8.16407 -104.403 11.1072 1.85529e-05 -3.44413 
382 1 10.2011 -104.765 9.10456 1.15588e-05 -3.44398 
383 1 10.2011 -102.396 10.7439 3.46622e-06 -3.44403 
384 1 8.16407 -102.759 8.74085 2.07809e-05 -3.44396 
385 1 0.0160687 -105.127 7.102 5.95505e-05 -3.44388 
386 1 2.05307 -105.49 5.09851 6.73481e-05 -3.44391 
387 1 2.05307 -103.122 6.73728 2.89523e-05 -3.44396 
451 1 10.2011 -100.754 8.37628 1.24215e-05 -3.444 
447 1 6.12707 -100.754 8.37628 1.24232e-05 -3.444 
443 1 2.05307 -100.754 8.37628 1.24234e-05 -3.444 
340 1 0.016068 -100.573 20.7639 7.10194e-07 -3.44402 
348 1 8.16407 -100.573 20.7639 7.10512e-07 -3.44402 
344 1 4.09007 -100.573 20.7639 7.10683e-07 -3.44402 
446 1 4.09007 -100.39 10.3799 7.27378e-06 -3.444 
442 1 0.0160682 -100.39 10.3799 7.27232e-06 -3.444 
450 1 8.16407 -100.39 10.3799 7.27265e-06 -3.444 
343 1 6.12707 -100.208 22.7681 7.5161e-08 -3.44405 
339 1 2.05307 -100.208 22.7681 7.50373e-08 -3.44405 
347 1 -2.02093 -100.208 22.7681 7.50954e-08 -3.44405 
414 1 8.16407 -98.2037 22.4034 5.45031e-08 -3.44405 
410 1 4.09007 -98.2037 22.4034 5.45838e-08 -3.44405 
406 1 0.0160674 -98.2037 22.4034 5.44436e-08 -3.44405 
433 1 0.0160677 -98.0209 12.0191 2.58215e-06 -3.44403 
441 1 8.16407 -98.0209 12.0191 2.58259e-06 -3.44403 
437 1 4.09007 -98.0209 12.0191 2.58316e-06 -3.44403 
395 1 4.09007 -97.839 1.63335 4.74493e-08 -3.44406 
403 1 0.0160674 -97.839 1.63335 4.73851e-08 -3.44406 
399 1 8.16407 -97.839 1.63335 4.73553e-08 -3.44406 
839 1 2.05306 -75.2385 12.0161 5.93004e-09 -3.44406 
855 1 6.12706 -75.9676 8.00791 5.35939e-09 -3.44406 
843 1 6.12706 -75.2385 12.0161 5.97997e-09 -3.44406 
754 1 6.12706 -75.4207 22.4013 7.96696e-09 -3.44406 
847 1 10.2011 -75.2385 12.0161 5.92676e-09 -3.44406 
859 1 10.2011 -75.9676 8.00791 5.37474e-09 -3.44406 
394 1 2.05307 -97.4742 3.63764 3.69245e-07 -3.44408 
436 1 6.12707 -97.6571 14.0227 4.55765e-07 -3.44406 
396 1 4.09007 -95.4696 3.27291 6.61797e-08 -3.44407 
397 1 2.05307 -95.8343 1.26865 2.01663e-08 -3.44406 
398 1 6.12707 -97.4742 3.63764 3.69508e-07 -3.44408 
440 1 10.2011 -97.6571 14.0227 4.55765e-07 -3.44406 
400 1 8.16407 -95.4696 3.27291 6.60281e-08 -3.44407 
401 1 6.12707 -95.8343 1.26865 2.0142e-08 -3.44406 
402 1 10.2011 -97.4742 3.63764 3.69138e-07 -3.44408 
432 1 2.05307 -97.6571 14.0227 4.55846e-07 -3.44406 
404 1 0.0160668 -95.4696 3.27291 6.59871e-08 -3.44407 
405 1 10.2011 -95.8343 1.26865 2.01215e-08 -3.44406 
830 1 4.09006 -74.1449 18.0285 5.70176e-10 -3.44406 
863 1 2.05306 -74.3272 5.63924 6.02232e-10 -3.44406 
408 1 2.05307 -96.1991 22.0387 1.30701e-07 -3.44406 
409 1 0.0160671 -96.5639 20.0344 8.72382e-07 -3.44408 
826 1 0.0160594 -74.1449 18.0285 5.64591e-10 -3.44406 
865 1 6.12706 -74.3272 5.63924 6.12428e-10 -3.44406 
412 1 6.12707 -96.1991 22.0387 1.30738e-07 -3.44406 
413 1 4.09007 -96.5639 20.0344 8.724e-07 -3.44408 
834 1 8.16406 -74.1449 18.0285 5.66913e-10 -3.44406 
867 1 10.2011 -74.3272 5.63924 6.06075e-10 -3.44406 
416 1 10.2011 -96.1991 22.0387 1.30797e-07 -3.44406 
417 1 8.16407 -96.5639 20.0344 8.7304e-07 -3.44408 
827 1 2.05306 -74.5094 16.0244 1.10168e-09 -3.44406 
739 1 2.05306 -75.0562 1.63108 6.01836e-09 -3.44406 
420 1 2.05307 -96.9286 18.0303 2.05601e-06 -3.44409 
421 1 0.0160676 -97.2931 16.0263 1.59021e-06 -3.44408 
835 1 10.2011 -74.5094 16.0244 1.11771e-09 -3.44406 
747 1 10.2011 -75.0562 1.63108 5.96238e-09 -3.44406 
424 1 6.12707 -96.9286 18.0303 2.05723e-06 -3.44409 
425 1 4.09007 -97.2931 16.0263 1.59127e-06 -3.44408 
831 1 6.12706 -74.5094 16.0244 1.10826e-09 -3.44406 
743 1 6.12706 -75.0562 1.63108 5.98661e-09 -3.44406 
428 1 10.2011 -96.9286 18.0303 2.056e-06 -3.44409 
429 1 8.16407 -97.2931 16.0263 1.59084e-06 -3.44408 
851 1 2.05306 -75.9676 8.00791 5.36191e-09 -3.44406 
854 1 4.09006 -75.6031 10.012 6.97504e-09 -3.44406 
852 1 2.05306 -73.5982 9.64742 3.26792e-09 -3.44406 
815 1 2.05306 -73.7803 20.0326 1.98012e-09 -3.44406 
758 1 10.2011 -75.4207 22.4013 8.06692e-09 -3.44406 
850 1 0.01606 -75.6031 10.012 6.92371e-09 -3.44406 
856 1 6.12706 -73.5982 9.64742 3.26408e-09 -3.44406 
819 1 6.12706 -73.7803 20.0326 2.00579e-09 -3.44406 
750 1 2.05306 -75.4207 22.4013 8.03269e-09 -3.44406 
858 1 8.16406 -75.6031 10.012 6.99281e-09 -3.44406 
860 1 10.2011 -73.5982 9.64742 3.2891e-09 -3.44406 
823 1 10.2011 -73.7803 20.0326 1.97328e-09 -3.44406 
861 1 8.16406 -73.9627 7.64333 1.47055e-09 -3.44406 
838 1 0.0160596 -74.874 14.0202 3.37378e-09 -3.44406 
857 1 4.09006 -73.9627 7.64333 1.45991e-09 -3.44406 
842 1 4.09006 -74.874 14.0202 3.39185e-09 -3.44406 
853 1 0.0160592 -73.9627 7.64333 1.49861e-09 -3.44406 
846 1 8.16406 -74.874 14.0202 3.41475e-09 -3.44406 
746 1 0.0160597 -74.6917 3.63516 2.40852e-09 -3.44406 
742 1 8.16406 -74.6917 3.63516 2.40792e-09 -3.44406 
738 1 4.09006 -74.6917 3.63516 2.41621e-09 -3.44406 
460 1 2.05307 -91.0954 4.54774 4.83521e-08 -3.44406 
461 1 6.12707 -91.0954 4.54774 4.841e-08 -3.44406 
462 1 10.2011 -91.0954 4.54774 4.83051e-08 -3.44406 
463 1 2.05307 -93.4648 2.90821 4.50306e-08 -3.44406 
464 1 4.09007 -93.8296 0.903967 1.15755e-07 -3.44406 
465 1 4.09007 -91.4601 2.54354 9.50239e-08 -3.44407 
466 1 2.05307 -91.8248 0.539354 2.34453e-07 -3.44407 
467 1 6.12707 -93.4648 2.90821 4.51119e-08 -3.44406 
468 1 8.16407 -93.8296 0.903967 1.15794e-07 -3.44406 
469 1 8.16407 -91.4601 2.54354 9.50326e-08 -3.44407 
470 1 6.12707 -91.8248 0.539354 2.34398e-07 -3.44407 
471 1 10.2011 -93.4648 2.90821 4.50334e-08 -3.44406 
472 1 0.0160663 -93.8296 0.903967 1.1572e-07 -3.44406 
473 1 0.0160656 -91.4601 2.54354 9.50296e-08 -3.44407 
474 1 10.2011 -91.8248 0.539354 2.34484e-07 -3.44407 
475 1 0.0160663 -94.1943 21.6741 4.29832e-07 -3.44407 
476 1 2.05307 -94.559 19.6699 8.76695e-07 -3.44408 
477 1 2.05307 -92.1894 21.3096 4.04641e-07 -3.44407 
478 1 0.0160662 -92.5539 19.3055 3.29701e-07 -3.44407 
479 1 4.09007 -94.1943 21.6741 4.29857e-07 -3.44407 
480 1 6.12707 -94.559 19.6699 8.76996e-07 -3.44408 
481 1 6.12707 -92.1894 21.3096 4.04737e-07 -3.44407 
482 1 4.09007 -92.5539 19.3055 3.29932e-07 -3.44407 
483 1 8.16407 -94.1943 21.6741 4.30038e-07 -3.44407 
484 1 10.2011 -94.559 19.6699 8.7699e-07 -3.44408 
485 1 10.2011 -92.1894 21.3096 4.04623e-07 -3.44407 
486 1 8.16407 -92.5539 19.3055 3.297e-07 -3.44407 
487 1 0.016067 -94.9234 17.6659 7.10749e-07 -3.44408 
488 1 2.05307 -95.2876 15.6621 2.01688e-07 -3.44406 
489 1 2.05307 -92.9182 17.3016 9.64781e-08 -3.44406 
490 1 0.0160666 -93.2823 15.2978 3.57356e-07 -3.44405 
491 1 4.09007 -94.9234 17.6659 7.11207e-07 -3.44408 
492 1 6.12707 -95.2876 15.6621 2.01686e-07 -3.44406 
493 1 6.12707 -92.9182 17.3016 9.64203e-08 -3.44406 
494 1 4.09007 -93.2823 15.2978 3.57467e-07 -3.44405 
495 1 8.16407 -94.9234 17.6659 7.10908e-07 -3.44408 
496 1 10.2011 -95.2876 15.6621 2.017e-07 -3.44406 
497 1 10.2011 -92.9182 17.3016 9.6487e-08 -3.44406 
498 1 8.16407 -93.2823 15.2978 3.57588e-07 -3.44405 
499 1 0.0160671 -95.6516 13.6584 9.44215e-07 -3.44404 
500 1 2.05307 -96.0157 11.6546 2.30502e-06 -3.44403 
501 1 2.05307 -93.6465 13.2939 1.01117e-06 -3.44404 
502 1 0.0160665 -94.0108 11.2899 1.01387e-06 -3.44405 
503 1 4.09007 -95.6516 13.6584 9.44224e-07 -3.44404 
504 1 6.12707 -96.0157 11.6546 2.30564e-06 -3.44403 
505 1 6.12707 -93.6465 13.2939 1.01177e-06 -3.44404 
506 1 4.09007 -94.0108 11.2899 1.01452e-06 -3.44405 
507 1 8.16407 -95.6516 13.6584 9.44692e-07 -3.44404 
508 1 10.2011 -96.0157 11.6546 2.30442e-06 -3.44403 
509 1 10.2011 -93.6465 13.2939 1.01112e-06 -3.44404 
510 1 8.16407 -94.0108 11.2899 1.01408e-06 -3.44405 
511 1 0.0160671 -96.3799 9.6506 1.87129e-06 -3.44405 
512 1 2.05307 -96.7445 7.64637 4.27583e-07 -3.44407 
513 1 2.05307 -94.3753 9.28575 3.59909e-07 -3.44406 
514 1 0.0160666 -94.74 7.28148 5.8665e-08 -3.44407 
515 1 4.09007 -96.3799 9.6506 1.87227e-06 -3.44405 
516 1 6.12707 -96.7445 7.64637 4.27488e-07 -3.44407 
517 1 6.12707 -94.3753 9.28575 3.59863e-07 -3.44406 
518 1 4.09007 -94.74 7.28148 5.86745e-08 -3.44407 
519 1 8.16407 -96.3799 9.6506 1.87131e-06 -3.44405 
520 1 10.2011 -96.7445 7.64637 4.27266e-07 -3.44407 
521 1 10.2011 -94.3753 9.28575 3.59664e-07 -3.44406 
522 1 8.16407 -94.74 7.28148 5.87166e-08 -3.44407 
523 1 0.0160672 -97.1093 5.642 2.19493e-07 -3.44408 
524 1 2.05307 -95.1048 5.27719 1.25987e-07 -3.44407 
525 1 4.09007 -97.1093 5.642 2.19553e-07 -3.44408 
526 1 6.12707 -95.1048 5.27719 1.26126e-07 -3.44407 
527 1 8.16407 -97.1093 5.642 2.19643e-07 -3.44408 
528 1 10.2011 -95.1048 5.27719 1.25893e-07 -3.44407 
529 1 4.09006 -89.0906 4.18309 7.0804e-08 -3.44407 
530 1 2.05306 -87.0858 3.81848 8.16853e-08 -3.44407 
531 1 8.16406 -89.0906 4.18309 7.078e-08 -3.44407 
532 1 6.12706 -87.0858 3.81848 8.14692e-08 -3.44407 
533 1 0.0160647 -89.0906 4.18309 7.08827e-08 -3.44407 
534 1 10.2011 -87.0858 3.81848 8.16169e-08 -3.44407 
535 1 2.05306 -89.4552 2.17893 1.36082e-07 -3.44407 
536 1 4.09007 -89.8198 0.17481 2.01128e-07 -3.44407 
537 1 4.09006 -87.4503 1.81437 1.06586e-07 -3.44407 
538 1 0.0160645 -87.8148 22.5847 8.24393e-08 -3.44407 
539 1 6.12707 -89.4552 2.17893 1.35924e-07 -3.44407 
540 1 8.16407 -89.8198 0.17481 2.01227e-07 -3.44407 
541 1 8.16406 -87.4503 1.81437 1.06533e-07 -3.44407 
542 1 4.09006 -87.8148 22.5847 8.24938e-08 -3.44407 
543 1 10.2011 -89.4552 2.17893 1.36139e-07 -3.44407 
544 1 0.0160651 -89.8198 0.17481 2.01076e-07 -3.44407 
545 1 0.0160643 -87.4503 1.81437 1.06737e-07 -3.44407 
546 1 8.16406 -87.8148 22.5847 8.23884e-08 -3.44407 
547 1 0.0160653 -90.1843 20.9451 1.60625e-07 -3.44407 
548 1 2.05307 -90.5487 18.9411 4.94392e-08 -3.44406 
549 1 2.05306 -88.1793 20.5806 2.66524e-08 -3.44406 
550 1 0.0160647 -88.5436 18.5767 5.80888e-08 -3.44406 
551 1 4.09007 -90.1843 20.9451 1.60749e-07 -3.44407 
552 1 6.12707 -90.5487 18.9411 4.94569e-08 -3.44406 
553 1 6.12706 -88.1793 20.5807 2.66185e-08 -3.44406 
554 1 4.09006 -88.5436 18.5767 5.82315e-08 -3.44406 
555 1 8.16407 -90.1843 20.9451 1.60564e-07 -3.44407 
556 1 10.2011 -90.5487 18.9411 4.9472e-08 -3.44406 
557 1 10.2011 -88.1793 20.5807 2.66582e-08 -3.44406 
558 1 8.16406 -88.5436 18.5767 5.81373e-08 -3.44406 
559 1 0.0160657 -90.913 16.9372 1.40893e-07 -3.44406 
560 1 2.05307 -91.2772 14.9333 4.5166e-07 -3.44405 