ITEM: TIMESTEP
0
ITEM: NUMBER OF ATOMS
7705
ITEM: BOX BOUNDS pp ff pp
0.0000000000000000e+00 1.4403765132769973e+01
-1.2237084125485809e+02 1.2237084125485809e+02
0.0000000000000000e+00 3.7115906401433868e+01
ITEM: ATOMS id type x y z c_csym c_eng 
1484 1 4.15103 -118.293 4.26694 0.02047 -3.43463 
1490 1 4.15103 -121.084 3.89245 30.1476 -2.89489 
1491 1 2.71066 -119.443 2.05461 7.66581 -3.31053 
1493 1 1.27028 -118.293 4.26694 0.02047 -3.43463 
1494 1 1.27028 -121.084 3.89245 30.1476 -2.89489 
1477 1 8.47216 -119.443 2.05461 7.66581 -3.31053 
1478 1 5.59141 -119.443 2.05461 7.66581 -3.31053 
1479 1 7.03179 -118.293 4.26694 0.02047 -3.43463 
1480 1 7.03179 -121.084 3.89245 30.1476 -2.89489 
1492 1 14.2337 -119.443 2.05461 7.66581 -3.31053 
1456 1 11.3529 -119.443 2.05461 7.66581 -3.31053 
1457 1 12.7933 -118.293 4.26694 0.02047 -3.43463 
1458 1 12.7933 -121.084 3.89245 30.1476 -2.89489 
1462 1 9.91254 -118.293 4.26694 0.02047 -3.43463 
1476 1 9.91254 -121.084 3.89245 30.1476 -2.89489 
1062 1 4.15103 -117.705 0.276029 0.00943107 -3.44026 
1065 1 1.27028 -117.705 0.276029 0.00943107 -3.44026 
1061 1 4.15103 -114.838 0.709814 0.000732347 -3.44302 
1064 1 1.27028 -114.838 0.709814 0.000732347 -3.44302 
1482 1 2.71066 -116.577 2.48792 0.00360879 -3.44235 
1060 1 7.03179 -117.705 0.276029 0.00943107 -3.44026 
1054 1 7.03179 -114.838 0.709814 0.000732347 -3.44302 
1460 1 8.47216 -116.577 2.48792 0.00360879 -3.44235 
1481 1 5.59141 -116.577 2.48792 0.00360879 -3.44235 
1050 1 12.7933 -117.705 0.276029 0.00943107 -3.44026 
1052 1 9.91254 -117.705 0.276029 0.00943107 -3.44026 
1495 1 14.2337 -116.577 2.48792 0.00360879 -3.44235 
1036 1 12.7933 -114.838 0.709814 0.000732347 -3.44302 
1051 1 9.91254 -114.838 0.709814 0.000732347 -3.44302 
1459 1 11.3529 -116.577 2.48792 0.00360879 -3.44235 
1485 1 2.71066 -113.726 2.94195 0.000131577 -3.4439 
1056 1 4.15103 -111.987 1.15555 3.29969e-05 -3.44392 
1063 1 1.27028 -111.987 1.15555 3.29969e-05 -3.44392 
1468 1 2.71066 -110.879 3.39104 3.86204e-05 -3.44394 
1463 1 8.47216 -113.726 2.94195 0.000131577 -3.4439 
1464 1 5.59141 -113.726 2.94195 0.000131577 -3.4439 
1053 1 7.03179 -111.987 1.15555 3.29969e-05 -3.44392 
1440 1 8.47216 -110.879 3.39104 3.86204e-05 -3.44394 
1467 1 5.59141 -110.879 3.39104 3.86204e-05 -3.44394 
1486 1 14.2337 -113.726 2.94195 0.000131577 -3.4439 
1436 1 11.3529 -113.726 2.94195 0.000131577 -3.4439 
1489 1 14.2337 -110.879 3.39104 3.86204e-05 -3.44394 
1035 1 12.7933 -111.987 1.15555 3.29969e-05 -3.44392 
1038 1 9.91254 -111.987 1.15555 3.29969e-05 -3.44392 
1439 1 11.3529 -110.879 3.39104 3.86204e-05 -3.44394 
1055 1 4.15103 -109.141 1.60302 1.66729e-05 -3.44399 
1058 1 1.27028 -109.141 1.60302 1.66729e-05 -3.44399 
1044 1 4.15103 -106.295 2.05135 3.36413e-06 -3.44405 
1057 1 1.27028 -106.295 2.05135 3.36413e-06 -3.44405 
1471 1 2.71066 -108.034 3.84025 5.25331e-06 -3.44405 
1040 1 7.03179 -109.141 1.60302 1.66729e-05 -3.44399 
1039 1 7.03179 -106.295 2.05135 3.36413e-06 -3.44405 
1443 1 8.47216 -108.034 3.84025 5.25331e-06 -3.44405 
1444 1 5.59141 -108.034 3.84025 5.25331e-06 -3.44405 
1017 1 12.7933 -109.141 1.60302 1.66729e-05 -3.44399 
1037 1 9.91254 -109.141 1.60302 1.66729e-05 -3.44399 
1472 1 14.2337 -108.034 3.84025 5.25331e-06 -3.44405 
1016 1 12.7933 -106.295 2.05135 3.36413e-06 -3.44405 
1021 1 9.91254 -106.295 2.05135 3.36413e-06 -3.44405 
1416 1 11.3529 -108.034 3.84025 5.25331e-06 -3.44405 
1448 1 2.71066 -105.189 4.28872 1.92603e-06 -3.4441 
1042 1 2.71066 -104.556 0.262542 2.18732e-06 -3.44405 
1043 1 4.15103 -103.45 2.49952 6.8954e-07 -3.44408 
1045 1 2.71066 -101.71 0.710537 3.97615e-07 -3.44407 
1048 1 1.27028 -103.45 2.49952 6.8954e-07 -3.44408 
1420 1 8.47216 -105.189 4.28872 1.92603e-06 -3.4441 
1447 1 5.59141 -105.189 4.28872 1.92603e-06 -3.4441 
1019 1 8.47216 -104.556 0.262542 2.18732e-06 -3.44405 
1022 1 8.47216 -101.71 0.710537 3.97615e-07 -3.44407 
1023 1 5.59141 -101.71 0.710537 3.97615e-07 -3.44407 
1025 1 7.03179 -103.45 2.49952 6.8954e-07 -3.44408 
1041 1 5.59141 -104.556 0.262542 2.18732e-06 -3.44405 
1475 1 14.2337 -105.189 4.28872 1.92603e-06 -3.4441 
1419 1 11.3529 -105.189 4.28872 1.92603e-06 -3.4441 
1046 1 14.2337 -101.71 0.710537 3.97615e-07 -3.44407 
1059 1 14.2337 -104.556 0.262542 2.18732e-06 -3.44405 
996 1 11.3529 -101.71 0.710537 3.97615e-07 -3.44407 
998 1 12.7933 -103.45 2.49952 6.8954e-07 -3.44408 
1018 1 11.3529 -104.556 0.262542 2.18732e-06 -3.44405 
1020 1 9.91254 -103.45 2.49952 6.8954e-07 -3.44408 
1029 1 4.15103 -100.604 2.94724 5.53135e-07 -3.44408 
1047 1 1.27028 -100.604 2.94724 5.53135e-07 -3.44408 
1027 1 2.71066 -98.8646 1.15829 2.34613e-07 -3.44407 
1028 1 4.15103 -97.7581 3.39467 2.83947e-07 -3.44407 
1033 1 1.27028 -97.7581 3.39467 2.83947e-07 -3.44407 
1024 1 7.03179 -100.604 2.94724 5.53135e-07 -3.44408 
1000 1 8.47216 -98.8646 1.15829 2.34613e-07 -3.44407 
1006 1 7.03179 -97.7581 3.39467 2.83947e-07 -3.44407 
1026 1 5.59141 -98.8646 1.15829 2.34613e-07 -3.44407 
997 1 12.7933 -100.604 2.94724 5.53135e-07 -3.44408 
1002 1 9.91254 -100.604 2.94724 5.53135e-07 -3.44408 
1049 1 14.2337 -98.8646 1.15829 2.34613e-07 -3.44407 
978 1 12.7933 -97.7581 3.39467 2.83947e-07 -3.44407 
999 1 11.3529 -98.8646 1.15829 2.34613e-07 -3.44407 
1001 1 9.91254 -97.7581 3.39467 2.83947e-07 -3.44407 
1008 1 2.71066 -93.1719 2.05318 6.6004e-08 -3.44407 
1010 1 4.15103 -94.9116 3.84196 1.13986e-07 -3.44407 
1030 1 2.71066 -96.0183 1.6058 1.43967e-07 -3.44407 
1032 1 1.27028 -94.9116 3.84196 1.13986e-07 -3.44407 
980 1 8.47216 -93.1719 2.05318 6.6004e-08 -3.44407 
1003 1 8.47216 -96.0183 1.6058 1.43967e-07 -3.44407 
1004 1 5.59141 -96.0183 1.6058 1.43967e-07 -3.44407 
1005 1 7.03179 -94.9116 3.84196 1.13986e-07 -3.44407 
1007 1 5.59141 -93.1719 2.05318 6.6004e-08 -3.44407 
1031 1 14.2337 -96.0183 1.6058 1.43967e-07 -3.44407 
1034 1 14.2337 -93.1719 2.05318 6.6004e-08 -3.44407 
976 1 11.3529 -96.0183 1.6058 1.43967e-07 -3.44407 
977 1 12.7933 -94.9116 3.84196 1.13986e-07 -3.44407 
979 1 11.3529 -93.1719 2.05318 6.6004e-08 -3.44407 
982 1 9.91254 -94.9116 3.84196 1.13986e-07 -3.44407 
1009 1 4.15103 -92.0651 4.28921 4.01021e-08 -3.44407 
1014 1 1.27028 -92.0651 4.28921 4.01021e-08 -3.44407 
665 1 4.15103 -88.5857 0.711739 1.19036e-08 -3.44407 
668 1 4.15103 -91.4322 0.264432 3.40843e-08 -3.44407 
669 1 1.27028 -88.5857 0.711739 1.19036e-08 -3.44407 
670 1 1.27028 -91.4322 0.264432 3.40843e-08 -3.44407 
1011 1 2.71066 -90.3254 2.50047 2.37136e-08 -3.44407 
986 1 7.03179 -92.0651 4.28921 4.01021e-08 -3.44407 
662 1 7.03179 -88.5857 0.711739 1.19036e-08 -3.44407 
663 1 7.03179 -91.4322 0.264432 3.40843e-08 -3.44407 
983 1 8.47216 -90.3254 2.50047 2.37136e-08 -3.44407 
984 1 5.59141 -90.3254 2.50047 2.37136e-08 -3.44407 
958 1 12.7933 -92.0651 4.28921 4.01021e-08 -3.44407 
981 1 9.91254 -92.0651 4.28921 4.01021e-08 -3.44407 
1012 1 14.2337 -90.3254 2.50047 2.37136e-08 -3.44407 
648 1 12.7933 -88.5857 0.711739 1.19036e-08 -3.44407 
649 1 12.7933 -91.4322 0.264432 3.40843e-08 -3.44407 
651 1 9.91254 -88.5857 0.711739 1.19036e-08 -3.44407 
661 1 9.91254 -91.4322 0.264432 3.40843e-08 -3.44407 
956 1 11.3529 -90.3254 2.50047 2.37136e-08 -3.44407 
664 1 4.15103 -85.7391 1.159 2.47205e-09 -3.44407 
667 1 1.27028 -85.7391 1.159 2.47205e-09 -3.44407 
988 1 2.71066 -87.4788 2.94772 7.01913e-09 -3.44406 
991 1 2.71066 -84.6322 3.39497 3.94351e-09 -3.44406 
653 1 7.03179 -85.7391 1.159 2.47205e-09 -3.44407 
960 1 8.47216 -87.4788 2.94772 7.01913e-09 -3.44406 
963 1 8.47216 -84.6322 3.39497 3.94351e-09 -3.44406 
964 1 5.59141 -84.6322 3.39497 3.94351e-09 -3.44406 
987 1 5.59141 -87.4788 2.94772 7.01913e-09 -3.44406 
992 1 14.2337 -84.6322 3.39497 3.94351e-09 -3.44406 
1015 1 14.2337 -87.4788 2.94772 7.01913e-09 -3.44406 
632 1 12.7933 -85.7391 1.159 2.47205e-09 -3.44407 
650 1 9.91254 -85.7391 1.159 2.47205e-09 -3.44407 
936 1 11.3529 -84.6322 3.39497 3.94351e-09 -3.44406 
959 1 11.3529 -87.4788 2.94772 7.01913e-09 -3.44406 
654 1 4.15103 -80.046 2.05353 6.42133e-09 -3.44407 
655 1 4.15103 -82.8925 1.60626 2.34874e-09 -3.44407 
659 1 1.27028 -80.046 2.05353 6.42133e-09 -3.44407 
666 1 1.27028 -82.8925 1.60626 2.34874e-09 -3.44407 
968 1 2.71066 -81.7856 3.84224 6.20751e-09 -3.44406 
638 1 7.03179 -80.046 2.05353 6.42133e-09 -3.44407 
652 1 7.03179 -82.8925 1.60626 2.34874e-09 -3.44407 
940 1 8.47216 -81.7856 3.84224 6.20751e-09 -3.44406 
967 1 5.59141 -81.7856 3.84224 6.20751e-09 -3.44406 
995 1 14.2337 -81.7856 3.84224 6.20751e-09 -3.44406 
613 1 12.7933 -80.046 2.05353 6.42133e-09 -3.44407 
631 1 12.7933 -82.8925 1.60626 2.34874e-09 -3.44407 
633 1 9.91254 -80.046 2.05353 6.42133e-09 -3.44407 
634 1 9.91254 -82.8925 1.60626 2.34874e-09 -3.44407 
939 1 11.3529 -81.7856 3.84224 6.20751e-09 -3.44406 
640 1 2.71066 -75.4598 0.712128 1.50254e-08 -3.44407 
642 1 4.15103 -77.1995 2.50085 1.09954e-08 -3.44407 
656 1 2.71066 -78.3063 0.264801 9.07433e-09 -3.44407 
658 1 1.27028 -77.1995 2.50085 1.09954e-08 -3.44407 
971 1 2.71066 -78.9391 4.28956 9.70113e-09 -3.44406 
615 1 8.47216 -75.4598 0.712128 1.50254e-08 -3.44407 
635 1 8.47216 -78.3063 0.264801 9.07433e-09 -3.44407 
636 1 5.59141 -78.3063 0.264801 9.07433e-09 -3.44407 
637 1 7.03179 -77.1995 2.50085 1.09954e-08 -3.44407 
639 1 5.59141 -75.4598 0.712128 1.50254e-08 -3.44407 
943 1 8.47216 -78.9391 4.28956 9.70113e-09 -3.44406 
944 1 5.59141 -78.9391 4.28956 9.70113e-09 -3.44406 
657 1 14.2337 -78.3063 0.264801 9.07433e-09 -3.44407 
660 1 14.2337 -75.4598 0.712128 1.50254e-08 -3.44407 
972 1 14.2337 -78.9391 4.28956 9.70113e-09 -3.44406 
611 1 11.3529 -78.3063 0.264801 9.07433e-09 -3.44407 
612 1 12.7933 -77.1995 2.50085 1.09954e-08 -3.44407 
614 1 11.3529 -75.4598 0.712128 1.50254e-08 -3.44407 
617 1 9.91254 -77.1995 2.50085 1.09954e-08 -3.44407 
916 1 11.3529 -78.9391 4.28956 9.70113e-09 -3.44406 
625 1 4.15103 -71.5067 3.39569 3.55556e-08 -3.44406 
641 1 4.15103 -74.3531 2.94824 1.72022e-08 -3.44406 
643 1 2.71066 -72.6134 1.15953 2.09949e-08 -3.44407 
645 1 1.27028 -71.5067 3.39569 3.55556e-08 -3.44406 
646 1 1.27028 -74.3531 2.94824 1.72022e-08 -3.44406 
618 1 8.47216 -72.6134 1.15953 2.09949e-08 -3.44407 
619 1 5.59141 -72.6134 1.15953 2.09949e-08 -3.44407 
620 1 7.03179 -71.5067 3.39569 3.55556e-08 -3.44406 
621 1 7.03179 -74.3531 2.94824 1.72022e-08 -3.44406 
644 1 14.2337 -72.6134 1.15953 2.09949e-08 -3.44407 
591 1 11.3529 -72.6134 1.15953 2.09949e-08 -3.44407 
592 1 12.7933 -71.5067 3.39569 3.55556e-08 -3.44406 
593 1 12.7933 -74.3531 2.94824 1.72022e-08 -3.44406 
597 1 9.91254 -71.5067 3.39569 3.55556e-08 -3.44406 
616 1 9.91254 -74.3531 2.94824 1.72022e-08 -3.44406 
623 1 2.71066 -69.7671 1.60702 3.89603e-08 -3.44406 
624 1 4.15103 -68.6603 3.84322 8.99209e-08 -3.44406 
626 1 2.71066 -66.9209 2.05462 1.00437e-07 -3.44406 
629 1 1.27028 -68.6603 3.84322 8.99209e-08 -3.44406 
595 1 8.47216 -69.7671 1.60702 3.89603e-08 -3.44406 
598 1 8.47216 -66.9209 2.05462 1.00437e-07 -3.44406 
599 1 5.59141 -66.9209 2.05462 1.00437e-07 -3.44406 
601 1 7.03179 -68.6603 3.84322 8.99209e-08 -3.44406 
622 1 5.59141 -69.7671 1.60702 3.89603e-08 -3.44406 
627 1 14.2337 -66.9209 2.05462 1.00437e-07 -3.44406 
647 1 14.2337 -69.7671 1.60702 3.89603e-08 -3.44406 
571 1 11.3529 -66.9209 2.05462 1.00437e-07 -3.44406 
573 1 12.7933 -68.6603 3.84322 8.99209e-08 -3.44406 
594 1 11.3529 -69.7671 1.60702 3.89603e-08 -3.44406 
596 1 9.91254 -68.6603 3.84322 8.99209e-08 -3.44406 
361 1 4.15103 -62.3352 0.713765 2.97668e-07 -3.44406 
362 1 4.15103 -65.1814 0.265987 1.09028e-07 -3.44406 
364 1 1.27028 -62.3352 0.713765 2.97668e-07 -3.44406 
365 1 1.27028 -65.1814 0.265987 1.09028e-07 -3.44406 
603 1 2.71066 -64.0746 2.50229 2.5908e-07 -3.44406 
605 1 4.15103 -65.814 4.29081 2.16181e-07 -3.44406 
628 1 1.27028 -65.814 4.29081 2.16181e-07 -3.44406 
354 1 7.03179 -62.3352 0.713765 2.97668e-07 -3.44406 
360 1 7.03179 -65.1814 0.265987 1.09028e-07 -3.44406 
575 1 8.47216 -64.0746 2.50229 2.5908e-07 -3.44406 
600 1 7.03179 -65.814 4.29081 2.16181e-07 -3.44406 
602 1 5.59141 -64.0746 2.50229 2.5908e-07 -3.44406 
630 1 14.2337 -64.0746 2.50229 2.5908e-07 -3.44406 
336 1 12.7933 -62.3352 0.713765 2.97668e-07 -3.44406 
350 1 12.7933 -65.1814 0.265987 1.09028e-07 -3.44406 
351 1 9.91254 -62.3352 0.713765 2.97668e-07 -3.44406 
352 1 9.91254 -65.1814 0.265987 1.09028e-07 -3.44406 
572 1 12.7933 -65.814 4.29081 2.16181e-07 -3.44406 
574 1 11.3529 -64.0746 2.50229 2.5908e-07 -3.44406 
577 1 9.91254 -65.814 4.29081 2.16181e-07 -3.44406 
356 1 4.15103 -59.4891 1.16163 7.16428e-07 -3.44406 
363 1 1.27028 -59.4891 1.16163 7.16428e-07 -3.44406 
583 1 2.71066 -58.3818 3.39772 1.10068e-06 -3.44406 
606 1 2.71066 -61.2283 2.95002 5.78913e-07 -3.44406 
353 1 7.03179 -59.4891 1.16163 7.16428e-07 -3.44406 
555 1 8.47216 -58.3818 3.39772 1.10068e-06 -3.44406 
578 1 8.47216 -61.2283 2.95002 5.78913e-07 -3.44406 
579 1 5.59141 -61.2283 2.95002 5.78913e-07 -3.44406 
582 1 5.59141 -58.3818 3.39772 1.10068e-06 -3.44406 
607 1 14.2337 -61.2283 2.95002 5.78913e-07 -3.44406 
610 1 14.2337 -58.3818 3.39772 1.10068e-06 -3.44406 
335 1 12.7933 -59.4891 1.16163 7.16428e-07 -3.44406 
338 1 9.91254 -59.4891 1.16163 7.16428e-07 -3.44406 
551 1 11.3529 -61.2283 2.95002 5.78913e-07 -3.44406 
554 1 11.3529 -58.3818 3.39772 1.10068e-06 -3.44406 
344 1 4.15103 -53.7962 2.05724 2.54299e-06 -3.44405 
355 1 4.15103 -56.6428 1.6095 1.46097e-06 -3.44406 
357 1 1.27028 -53.7962 2.05724 2.54299e-06 -3.44405 
358 1 1.27028 -56.6428 1.6095 1.46097e-06 -3.44406 
586 1 2.71066 -55.535 3.84529 1.78907e-06 -3.44405 
339 1 7.03179 -53.7962 2.05724 2.54299e-06 -3.44405 
340 1 7.03179 -56.6428 1.6095 1.46097e-06 -3.44406 
558 1 8.47216 -55.535 3.84529 1.78907e-06 -3.44405 
559 1 5.59141 -55.535 3.84529 1.78907e-06 -3.44405 
587 1 14.2337 -55.535 3.84529 1.78907e-06 -3.44405 
316 1 12.7933 -53.7962 2.05724 2.54299e-06 -3.44405 
317 1 12.7933 -56.6428 1.6095 1.46097e-06 -3.44406 
321 1 9.91254 -53.7962 2.05724 2.54299e-06 -3.44405 
337 1 9.91254 -56.6428 1.6095 1.46097e-06 -3.44406 
531 1 11.3529 -55.535 3.84529 1.78907e-06 -3.44405 
342 1 2.71066 -52.0575 0.269187 3.47256e-06 -3.44405 
343 1 4.15103 -50.949 2.50466 3.80258e-06 -3.44405 
348 1 1.27028 -50.949 2.50466 3.80258e-06 -3.44405 
563 1 2.71066 -52.6877 4.29255 2.48665e-06 -3.44405 
319 1 8.47216 -52.0575 0.269187 3.47256e-06 -3.44405 
325 1 7.03179 -50.949 2.50466 3.80258e-06 -3.44405 
341 1 5.59141 -52.0575 0.269187 3.47256e-06 -3.44405 
535 1 8.47216 -52.6877 4.29255 2.48665e-06 -3.44405 
562 1 5.59141 -52.6877 4.29255 2.48665e-06 -3.44405 
359 1 14.2337 -52.0575 0.269187 3.47256e-06 -3.44405 
590 1 14.2337 -52.6877 4.29255 2.48665e-06 -3.44405 
298 1 12.7933 -50.949 2.50466 3.80258e-06 -3.44405 
318 1 11.3529 -52.0575 0.269187 3.47256e-06 -3.44405 
320 1 9.91254 -50.949 2.50466 3.80258e-06 -3.44405 
534 1 11.3529 -52.6877 4.29255 2.48665e-06 -3.44405 
345 1 2.71066 -49.2107 0.716788 5.55601e-06 -3.44404 
327 1 2.71066 -46.363 1.16373 7.6844e-06 -3.44404 
328 1 4.15103 -45.2523 3.39737 5.3937e-06 -3.44403 
329 1 4.15103 -48.1012 2.95148 4.87854e-06 -3.44404 
333 1 1.27028 -45.2523 3.39737 5.3937e-06 -3.44403 
347 1 1.27028 -48.1012 2.95148 4.87854e-06 -3.44404 
322 1 8.47216 -49.2107 0.716788 5.55601e-06 -3.44404 
323 1 5.59141 -49.2107 0.716788 5.55601e-06 -3.44404 
300 1 8.47216 -46.363 1.16373 7.6844e-06 -3.44404 
306 1 7.03179 -45.2523 3.39737 5.3937e-06 -3.44403 
324 1 7.03179 -48.1012 2.95148 4.87854e-06 -3.44404 
326 1 5.59141 -46.363 1.16373 7.6844e-06 -3.44404 
346 1 14.2337 -49.2107 0.716788 5.55601e-06 -3.44404 
296 1 11.3529 -49.2107 0.716788 5.55601e-06 -3.44404 
349 1 14.2337 -46.363 1.16373 7.6844e-06 -3.44404 
278 1 12.7933 -45.2523 3.39737 5.3937e-06 -3.44403 
297 1 12.7933 -48.1012 2.95148 4.87854e-06 -3.44404 
299 1 11.3529 -46.363 1.16373 7.6844e-06 -3.44404 
301 1 9.91254 -45.2523 3.39737 5.3937e-06 -3.44403 
302 1 9.91254 -48.1012 2.95148 4.87854e-06 -3.44404 
310 1 4.15103 -42.4024 3.84195 5.67695e-06 -3.44403 
330 1 2.71066 -43.5142 1.60961 9.21472e-06 -3.44403 
332 1 1.27028 -42.4024 3.84195 5.67695e-06 -3.44403 
303 1 8.47216 -43.5142 1.60961 9.21472e-06 -3.44403 
304 1 5.59141 -43.5142 1.60961 9.21472e-06 -3.44403 
305 1 7.03179 -42.4024 3.84195 5.67695e-06 -3.44403 
331 1 14.2337 -43.5142 1.60961 9.21472e-06 -3.44403 
276 1 11.3529 -43.5142 1.60961 9.21472e-06 -3.44403 
277 1 12.7933 -42.4024 3.84195 5.67695e-06 -3.44403 
282 1 9.91254 -42.4024 3.84195 5.67695e-06 -3.44403 
308 1 2.71066 -40.6639 2.05396 9.97057e-06 -3.44402 
148 1 4.15104 -38.926 0.266428 1.78194e-05 -3.444 
150 1 1.27028 -38.926 0.266428 1.78194e-05 -3.444 
309 1 4.15103 -39.5511 4.28482 8.70867e-06 -3.44403 
311 1 2.71065 -37.812 2.4963 1.22866e-05 -3.44401 
314 1 1.27028 -39.5511 4.28482 8.70867e-06 -3.44403 
280 1 8.47216 -40.6639 2.05396 9.97057e-06 -3.44402 
307 1 5.59141 -40.6639 2.05396 9.97057e-06 -3.44402 
143 1 7.03179 -38.926 0.266428 1.78194e-05 -3.444 
283 1 8.47216 -37.812 2.4963 1.22866e-05 -3.44401 
284 1 5.59141 -37.812 2.4963 1.22866e-05 -3.44401 
286 1 7.03178 -39.5511 4.28482 8.70867e-06 -3.44403 
334 1 14.2337 -40.6639 2.05396 9.97057e-06 -3.44402 
279 1 11.3529 -40.6639 2.05396 9.97057e-06 -3.44402 
312 1 14.2337 -37.812 2.4963 1.22866e-05 -3.44401 
129 1 12.7933 -38.926 0.266428 1.78194e-05 -3.444 
141 1 9.91254 -38.926 0.266428 1.78194e-05 -3.444 
256 1 11.3529 -37.812 2.4963 1.22866e-05 -3.44401 
258 1 12.7933 -39.5511 4.28482 8.70867e-06 -3.44403 
281 1 9.91254 -39.5511 4.28482 8.70867e-06 -3.44403 
145 1 4.15103 -36.0733 0.70858 2.10619e-05 -3.44398 
149 1 1.27027 -36.0733 0.70858 2.10619e-05 -3.44398 
144 1 4.15099 -33.2178 1.14809 3.33944e-05 -3.44394 
147 1 1.27024 -33.2178 1.14809 3.33944e-05 -3.44394 
288 1 2.71063 -34.9583 2.93623 2.65235e-05 -3.44399 
142 1 7.03178 -36.0733 0.70858 2.10619e-05 -3.44398 
133 1 7.03174 -33.2178 1.14809 3.33944e-05 -3.44394 
260 1 8.47214 -34.9583 2.93623 2.65235e-05 -3.44399 
287 1 5.59138 -34.9583 2.93623 2.65235e-05 -3.44399 
128 1 12.7933 -36.0733 0.70858 2.10619e-05 -3.44398 
131 1 9.91253 -36.0733 0.70858 2.10619e-05 -3.44398 
315 1 14.2336 -34.9583 2.93623 2.65235e-05 -3.44399 
112 1 12.7932 -33.2178 1.14809 3.33944e-05 -3.44394 
130 1 9.91249 -33.2178 1.14809 3.33944e-05 -3.44394 
259 1 11.3529 -34.9583 2.93623 2.65235e-05 -3.44399 
291 1 2.71056 -32.1028 3.37359 8.5472e-05 -3.44397 
135 1 4.15086 -30.3594 1.5847 8.68173e-05 -3.44388 
146 1 1.27011 -30.3594 1.5847 8.68173e-05 -3.44388 
268 1 2.71039 -29.2464 3.80878 0.000275797 -3.44397 
263 1 8.47206 -32.1028 3.37359 8.5472e-05 -3.44397 
264 1 5.59131 -32.1028 3.37359 8.5472e-05 -3.44397 
132 1 7.03161 -30.3594 1.5847 8.68173e-05 -3.44388 
240 1 8.47189 -29.2464 3.80878 0.000275797 -3.44397 
267 1 5.59114 -29.2464 3.80878 0.000275797 -3.44397 
292 1 14.2336 -32.1028 3.37359 8.5472e-05 -3.44397 
236 1 11.3528 -32.1028 3.37359 8.5472e-05 -3.44397 
295 1 14.2334 -29.2464 3.80878 0.000275797 -3.44397 
111 1 12.7931 -30.3594 1.5847 8.68173e-05 -3.44388 
114 1 9.91237 -30.3594 1.5847 8.68173e-05 -3.44388 
239 1 11.3526 -29.2464 3.80878 0.000275797 -3.44397 
134 1 4.15055 -27.4982 2.01865 0.000290254 -3.44383 
139 1 1.26979 -27.4982 2.01865 0.000290254 -3.44383 
122 1 4.14995 -24.6355 2.45112 0.000961467 -3.44385 
136 1 2.70978 -25.7492 0.232286 0.000266831 -3.44364 
138 1 1.26919 -24.6355 2.45112 0.000961467 -3.44385 
271 1 2.71007 -26.3908 4.24334 0.000765666 -3.44402 
118 1 7.0313 -27.4982 2.01865 0.000290254 -3.44383 
115 1 8.47129 -25.7492 0.232286 0.000266831 -3.44364 
116 1 5.59054 -25.7492 0.232286 0.000266831 -3.44364 
117 1 7.0307 -24.6355 2.45112 0.000961467 -3.44385 
243 1 8.47157 -26.3908 4.24334 0.000765666 -3.44402 
244 1 5.59082 -26.3908 4.24334 0.000765666 -3.44402 
93 1 12.7928 -27.4982 2.01865 0.000290254 -3.44383 
113 1 9.91205 -27.4982 2.01865 0.000290254 -3.44383 
137 1 14.2328 -25.7492 0.232286 0.000266831 -3.44364 
272 1 14.2331 -26.3908 4.24334 0.000765666 -3.44402 
91 1 11.352 -25.7492 0.232286 0.000266831 -3.44364 
92 1 12.7922 -24.6355 2.45112 0.000961467 -3.44385 
97 1 9.91145 -24.6355 2.45112 0.000961467 -3.44385 
216 1 11.3523 -26.3908 4.24334 0.000765666 -3.44402 
120 1 2.70867 -22.8782 0.663167 0.00102378 -3.44355 
121 1 4.14914 -21.7755 2.88554 0.00266189 -3.44401 
123 1 2.70701 -20.0059 1.0938 0.00378316 -3.44365 
126 1 1.26838 -21.7755 2.88554 0.00266189 -3.44401 
95 1 8.47017 -22.8782 0.663167 0.00102378 -3.44355 
98 1 8.46852 -20.0059 1.0938 0.00378316 -3.44365 
99 1 5.58777 -20.0059 1.0938 0.00378316 -3.44365 
101 1 7.02989 -21.7755 2.88554 0.00266189 -3.44401 
119 1 5.58942 -22.8782 0.663167 0.00102378 -3.44355 
124 1 14.23 -20.0059 1.0938 0.00378316 -3.44365 
140 1 14.2317 -22.8782 0.663167 0.00102378 -3.44355 
71 1 11.3493 -20.0059 1.0938 0.00378316 -3.44365 
73 1 12.7914 -21.7755 2.88554 0.00266189 -3.44401 
94 1 11.3509 -22.8782 0.663167 0.00102378 -3.44355 
96 1 9.91064 -21.7755 2.88554 0.00266189 -3.44401 
105 1 4.14871 -18.927 3.32953 0.00514625 -3.44412 
125 1 1.26796 -18.927 3.32953 0.00514625 -3.44412 
103 1 2.70539 -17.1426 1.53219 0.00998075 -3.44376 
104 1 4.15062 -16.1027 3.79657 0.0196692 -3.44457 
109 1 1.26987 -16.1027 3.79657 0.0196692 -3.44457 
100 1 7.02946 -18.927 3.32953 0.00514625 -3.44412 
75 1 8.46689 -17.1426 1.53219 0.00998075 -3.44376 
81 1 7.03138 -16.1027 3.79657 0.0196692 -3.44457 
102 1 5.58614 -17.1426 1.53219 0.00998075 -3.44376 
72 1 12.791 -18.927 3.32953 0.00514625 -3.44412 
77 1 9.91022 -18.927 3.32953 0.00514625 -3.44412 
127 1 14.2284 -17.1426 1.53219 0.00998075 -3.44376 
53 1 12.7929 -16.1027 3.79657 0.0196692 -3.44457 
74 1 11.3476 -17.1426 1.53219 0.00998075 -3.44376 
76 1 9.91213 -16.1027 3.79657 0.0196692 -3.44457 
27 1 4.1309 -12.4904 0.186288 0.415246 -3.44819 
30 1 1.25014 -12.4904 0.186288 0.415246 -3.44819 
83 1 2.90809 -11.5466 2.56474 0.140795 -3.42713 
85 1 4.24046 -13.3206 4.32156 0.0285915 -3.43816 
106 1 2.70508 -14.3065 1.9962 0.0903082 -3.44549 
108 1 1.35971 -13.3206 4.32156 0.0285915 -3.43816 
110 1 0.027337 -11.5466 2.56474 0.140795 -3.42713 
25 1 7.01165 -12.4904 0.186288 0.415246 -3.44819 
55 1 8.6696 -11.5466 2.56474 0.140795 -3.42713 
78 1 8.46659 -14.3065 1.9962 0.0903082 -3.44549 
79 1 5.58583 -14.3065 1.9962 0.0903082 -3.44549 
80 1 7.12122 -13.3206 4.32156 0.0285915 -3.43816 
82 1 5.78884 -11.5466 2.56474 0.140795 -3.42713 
107 1 14.2281 -14.3065 1.9962 0.0903082 -3.44549 
15 1 12.7732 -12.4904 0.186288 0.415246 -3.44819 
17 1 9.8924 -12.4904 0.186288 0.415246 -3.44819 
51 1 11.3473 -14.3065 1.9962 0.0903082 -3.44549 
52 1 12.8827 -13.3206 4.32156 0.0285915 -3.43816 
54 1 11.5503 -11.5466 2.56474 0.140795 -3.42713 
57 1 10.002 -13.3206 4.32156 0.0285915 -3.43816 
26 1 4.57028 -9.77976 0.814126 0.689145 -3.40514 
28 1 2.14744 -6.89887 1.15542 6.73764 -3.44556 
29 1 1.68953 -9.77976 0.814126 0.689145 -3.40514 
86 1 3.20281 -8.70212 3.03687 1.68777 -3.43534 
87 1 0.322054 -8.70212 3.03687 1.68777 -3.43534 
21 1 5.02819 -6.89887 1.15542 6.73764 -3.44556 
18 1 7.90895 -6.89887 1.15542 6.73764 -3.44556 
19 1 7.45103 -9.77976 0.814126 0.689145 -3.40514 
58 1 8.96431 -8.70212 3.03687 1.68777 -3.43534 
59 1 6.08356 -8.70212 3.03687 1.68777 -3.43534 
6 1 13.6705 -6.89887 1.15542 6.73764 -3.44556 
7 1 13.2125 -9.77976 0.814126 0.689145 -3.40514 
9 1 10.7897 -6.89887 1.15542 6.73764 -3.44556 
16 1 10.3318 -9.77976 0.814126 0.689145 -3.40514 
37 1 11.8451 -8.70212 3.03687 1.68777 -3.43534 
20 1 3.92473 -4.46452 2.0432 7.49876 -3.40074 
23 1 1.04398 -4.46452 2.0432 7.49876 -3.40074 
63 1 2.60226 -6.07967 3.78823 6.0855 -3.37774 
66 1 2.54343 -3.11848 4.12719 0.197784 -3.43768 
2800 1 2.47222 -2.92526 0.254788 6.91318 -3.4049 
11 1 6.80549 -4.46452 2.0432 7.49876 -3.40074 
41 1 8.36376 -6.07967 3.78823 6.0855 -3.37774 
44 1 8.30494 -3.11848 4.12719 0.197784 -3.43768 
45 1 5.42419 -3.11848 4.12719 0.197784 -3.43768 
62 1 5.48301 -6.07967 3.78823 6.0855 -3.37774 
2790 1 8.23372 -2.92526 0.254788 6.91318 -3.4049 
2791 1 5.35297 -2.92526 0.254788 6.91318 -3.4049 
67 1 14.0664 -3.11848 4.12719 0.197784 -3.43768 
90 1 14.1253 -6.07967 3.78823 6.0855 -3.37774 
2 1 12.567 -4.46452 2.0432 7.49876 -3.40074 
8 1 9.68624 -4.46452 2.0432 7.49876 -3.40074 
31 1 11.1857 -3.11848 4.12719 0.197784 -3.43768 
40 1 11.2445 -6.07967 3.78823 6.0855 -3.37774 
2801 1 13.9952 -2.92526 0.254788 6.91318 -3.4049 
2786 1 11.1145 -2.92526 0.254788 6.91318 -3.4049 
14 1 4.00385 -1.49613 2.30459 0.348594 -3.44913 
22 1 1.1231 -1.49613 2.30459 0.348594 -3.44913 
3896 2 2.56635 -0.0279511 0.312892 6.92293 -3.38087 
3897 2 4.36356 1.34326 2.34362 8.49839 -3.4169 
3899 2 1.48281 1.34326 2.34362 8.49839 -3.4169 
4013 2 2.81936 -0.154423 4.47476 6.9759 -3.42702 
10 1 6.8846 -1.49613 2.30459 0.348594 -3.44913 
3887 2 8.32785 -0.0279511 0.312892 6.92293 -3.38087 
3890 2 7.24431 1.34326 2.34362 8.49839 -3.4169 
3895 2 5.4471 -0.0279511 0.312892 6.92293 -3.38087 
3997 2 8.58087 -0.154423 4.47476 6.9759 -3.42702 
4012 2 5.70011 -0.154423 4.47476 6.9759 -3.42702 
3900 2 14.0894 -0.0279511 0.312892 6.92293 -3.38087 
4020 2 14.3424 -0.154423 4.47476 6.9759 -3.42702 
1 1 12.6461 -1.49613 2.30459 0.348594 -3.44913 
5 1 9.76536 -1.49613 2.30459 0.348594 -3.44913 
3878 2 13.0058 1.34326 2.34362 8.49839 -3.4169 
3886 2 11.2086 -0.0279511 0.312892 6.92293 -3.38087 
3888 2 10.1251 1.34326 2.34362 8.49839 -3.4169 
3996 2 11.4616 -0.154423 4.47476 6.9759 -3.42702 
3892 2 4.78636 4.18123 1.18708 1.2295 -3.41966 
3898 2 1.9056 4.18123 1.18708 1.2295 -3.41966 
4004 2 3.22063 6.07199 2.93079 0.181371 -3.44097 
4015 2 3.14212 3.41009 3.47611 3.30024 -3.30242 
4016 2 0.261364 3.41009 3.47611 3.30024 -3.30242 
4019 2 0.33988 6.07199 2.93079 0.181371 -3.44097 
3889 2 7.66711 4.18123 1.18708 1.2295 -3.41966 
3980 2 8.98214 6.07199 2.93079 0.181371 -3.44097 
3999 2 8.90362 3.41009 3.47611 3.30024 -3.30242 
4000 2 6.02287 3.41009 3.47611 3.30024 -3.30242 
4003 2 6.10139 6.07199 2.93079 0.181371 -3.44097 
3877 2 13.4286 4.18123 1.18708 1.2295 -3.41966 
3880 2 10.5479 4.18123 1.18708 1.2295 -3.41966 
3976 2 11.7844 3.41009 3.47611 3.30024 -3.30242 
3979 2 11.8629 6.07199 2.93079 0.181371 -3.44097 
3884 2 4.45819 9.81781 0.125872 0.0545165 -3.44534 
3891 2 4.60035 7.05347 0.676082 0.0735614 -3.4297 
3893 2 1.57744 9.81781 0.125872 0.0545165 -3.44534 
3894 2 1.7196 7.05347 0.676082 0.0735614 -3.4297 
4007 2 3.08945 8.83822 2.43837 0.0279591 -3.44003 
4008 2 0.208694 8.83822 2.43837 0.0279591 -3.44003 
3990 2 4.50603 10.5777 4.22023 0.0081897 -3.44223 
4009 2 1.62528 10.5777 4.22023 0.0081897 -3.44223 
3881 2 7.33894 9.81781 0.125872 0.0545165 -3.44534 
3882 2 7.4811 7.05347 0.676082 0.0735614 -3.4297 
3983 2 8.85095 8.83822 2.43837 0.0279591 -3.44003 
3984 2 5.9702 8.83822 2.43837 0.0279591 -3.44003 
3985 2 7.38678 10.5777 4.22023 0.0081897 -3.44223 
3872 2 13.1004 9.81781 0.125872 0.0545165 -3.44534 
3873 2 13.2426 7.05347 0.676082 0.0735614 -3.4297 
3875 2 10.2197 9.81781 0.125872 0.0545165 -3.44534 
3879 2 10.3619 7.05347 0.676082 0.0735614 -3.4297 
3956 2 11.7317 8.83822 2.43837 0.0279591 -3.44003 
3957 2 13.1483 10.5777 4.22023 0.0081897 -3.44223 
3962 2 10.2675 10.5777 4.22023 0.0081897 -3.44223 
3988 2 3.03155 11.6077 1.9256 0.012912 -3.44412 
3989 2 4.47843 13.3674 3.72799 0.00311107 -3.44397 
3991 2 3.03557 14.4157 1.46001 0.00355654 -3.4442 
3992 2 0.154821 14.4157 1.46001 0.00355654 -3.4442 
3994 2 1.59768 13.3674 3.72799 0.00311107 -3.44397 
4011 2 0.150797 11.6077 1.9256 0.012912 -3.44412 
3960 2 8.79306 11.6077 1.9256 0.012912 -3.44412 
3963 2 8.79708 14.4157 1.46001 0.00355654 -3.4442 
3964 2 5.91633 14.4157 1.46001 0.00355654 -3.4442 
3966 2 7.35918 13.3674 3.72799 0.00311107 -3.44397 
3987 2 5.9123 11.6077 1.9256 0.012912 -3.44412 
3937 2 11.6778 14.4157 1.46001 0.00355654 -3.4442 
3939 2 13.1207 13.3674 3.72799 0.00311107 -3.44397 
3959 2 11.6738 11.6077 1.9256 0.012912 -3.44412 
3961 2 10.2399 13.3674 3.72799 0.00311107 -3.44397 
3968 2 3.03922 17.2468 1.01526 0.0013845 -3.44403 
3970 2 4.47952 16.1762 3.26553 0.00136256 -3.44414 
3993 2 1.59876 16.1762 3.26553 0.00136256 -3.44414 
3995 2 0.158469 17.2468 1.01526 0.0013845 -3.44403 
3969 2 4.48128 19.0017 2.81825 0.000770184 -3.44413 
3974 2 1.60053 19.0017 2.81825 0.000770184 -3.44413 
3941 2 8.80073 17.2468 1.01526 0.0013845 -3.44403 
3965 2 7.36027 16.1762 3.26553 0.00136256 -3.44414 
3967 2 5.91997 17.2468 1.01526 0.0013845 -3.44403 
3947 2 7.36204 19.0017 2.81825 0.000770184 -3.44413 
3938 2 13.1218 16.1762 3.26553 0.00136256 -3.44414 
3940 2 11.6815 17.2468 1.01526 0.0013845 -3.44403 
3943 2 10.241 16.1762 3.26553 0.00136256 -3.44414 
3924 2 13.1235 19.0017 2.81825 0.000770184 -3.44413 
3942 2 10.2428 19.0017 2.81825 0.000770184 -3.44413 
3949 2 3.04232 22.9353 0.140915 0.000276334 -3.44405 
3951 2 4.48239 21.838 2.37697 0.000404923 -3.44412 
3971 2 3.04134 20.0883 0.577164 0.00058104 -3.44401 
3972 2 0.160589 20.0883 0.577164 0.00058104 -3.44401 
3973 2 1.60164 21.838 2.37697 0.000404923 -3.44412 
3975 2 0.161565 22.9353 0.140915 0.000276334 -3.44405 
4158 2 3.04239 23.5841 4.17707 0.000262392 -3.44416 
4185 2 0.161636 23.5841 4.17707 0.000262392 -3.44416 
4181 2 3.04181 20.7499 4.62194 0.000406509 -3.44416 
4182 2 0.161056 20.7499 4.62194 0.000406509 -3.44416 
3926 2 8.80382 22.9353 0.140915 0.000276334 -3.44405 
3944 2 8.80285 20.0883 0.577164 0.00058104 -3.44401 
3945 2 5.9221 20.0883 0.577164 0.00058104 -3.44401 
3946 2 7.36315 21.838 2.37697 0.000404923 -3.44412 
3948 2 5.92307 22.9353 0.140915 0.000276334 -3.44405 
4130 2 8.8039 23.5841 4.17707 0.000262392 -3.44416 
4157 2 5.92314 23.5841 4.17707 0.000262392 -3.44416 
4153 2 8.80331 20.7499 4.62194 0.000406509 -3.44416 
4154 2 5.92256 20.7499 4.62194 0.000406509 -3.44416 
3922 2 11.6836 20.0883 0.577164 0.00058104 -3.44401 
3923 2 13.1247 21.838 2.37697 0.000404923 -3.44412 
3925 2 11.6846 22.9353 0.140915 0.000276334 -3.44405 
3928 2 10.2439 21.838 2.37697 0.000404923 -3.44412 
4129 2 11.6846 23.5841 4.17707 0.000262392 -3.44416 
4126 2 11.6841 20.7499 4.62194 0.000406509 -3.44416 
3950 2 4.48292 24.6812 1.93764 0.000214024 -3.44412 