ITEM: TIMESTEP
0
ITEM: NUMBER OF ATOMS
5447
ITEM: BOX BOUNDS xy xz yz pp pp ff
0.0 29.7002514892482 7.333395429443997
0.0 22.366856059804192 0.0
-101.25 101.25 0.0
ITEM: ATOMS id type x y z
1 2 0.0000000000 0.0000000000 0.0000000000
2 2 4.2167023719 2.7647077424 -0.0371951220
3 2 8.4334047439 5.5294154848 -0.0743902439
4 2 12.6501071158 8.2941232272 -0.1115853659
5 2 16.8668094877 11.0588309696 -0.1487804878
6 2 21.0835118597 13.8235387121 -0.1859756098
7 2 25.3002142316 16.5882464545 -0.2231707317
8 2 7.1500605437 19.3529541969 -0.2603658537
9 2 11.3667629156 22.1176619393 -0.2975609756
10 2 8.2500698581 2.5155136219 -0.3347560976
11 2 12.4667722301 5.2802213643 -0.3719512195
12 2 16.6834746020 8.0449291067 -0.4091463415
13 2 20.9001769739 10.8096368491 -0.4463414634
14 2 25.1168793458 13.5743445915 -0.4835365854
15 2 6.9667256580 16.3390523340 -0.5207317073
16 2 11.1834280299 19.1037600764 -0.5579268293
17 2 15.4001304018 21.8684678188 -0.5951219512
18 2 12.2834373443 2.2663195014 -0.6323170732
19 2 16.5001397162 5.0310272438 -0.6695121951
20 2 20.7168420882 7.7957349862 -0.7067073171
21 2 24.9335444601 10.5604427286 -0.7439024390
22 2 6.7833907722 13.3251504710 -0.7810975610
23 2 11.0000931442 16.0898582135 -0.8182926829
24 2 15.2167955161 18.8545659559 -0.8554878049
25 2 19.4334978880 21.6192736983 -0.8926829268
26 2 16.3168048305 2.0171253809 -0.9298780488
27 2 20.5335072024 4.7818331233 -0.9670731707
28 2 24.7502095744 7.5465408657 -1.0042682927
29 2 6.6000558865 10.3112486081 -1.0414634146
30 2 10.8167582584 13.0759563505 -1.0786585366
31 2 15.0334606304 15.8406640929 -1.1158536585
32 2 19.2501630023 18.6053718354 -1.1530487805
33 2 23.4668653742 21.3700795778 -1.1902439024
34 2 20.3501723167 1.7679312604 -1.2274390244
35 2 2.2000186288 4.5326390028 -1.2646341463
36 2 6.4167210008 7.2973467452 -1.3018292683
37 2 10.6334233727 10.0620544876 -1.3390243902
38 2 14.8501257446 12.8267622300 -1.3762195122
39 2 19.0668281166 15.5914699724 -1.4134146341
40 2 23.2835304885 18.3561777148 -1.4506097561
41 2 27.5002328604 21.1208854573 -1.4878048780
42 2 2.0166837431 1.5187371399 -1.5250000000
43 2 6.2333861150 4.2834448823 -1.5621951220
44 2 10.4500884870 7.0481526247 -1.5993902439
45 2 14.6667908589 9.8128603671 -1.6365853659
46 2 18.8834932308 12.5775681095 -1.6737804878
47 2 23.1001956027 15.3422758519 -1.7109756098
48 2 27.3168979747 18.1069835943 -1.7481707317
49 2 9.1667442868 20.8716913367 -1.7853658537
50 2 6.0500512293 1.2695430194 -1.8225609756
51 2 10.2667536012 4.0342507618 -1.8597560976
52 2 14.4834559732 6.7989585042 -1.8969512195
53 2 18.7001583451 9.5636662466 -1.9341463415
54 2 22.9168607170 12.3283739890 -1.9713414634
55 2 27.1335630889 15.0930817314 -2.0085365854
56 2 8.9834094011 17.8577894738 -2.0457317073
57 2 13.2001117730 20.6224972162 -2.0829268293
58 2 10.0834187155 1.0203488988 -2.1201219512
59 2 14.3001210874 3.7850566413 -2.1573170732
60 2 18.5168234593 6.5497643837 -2.1945121951
61 2 22.7335258313 9.3144721261 -2.2317073171
62 2 4.5833721434 12.0791798685 -2.2689024390
63 2 8.8000745153 14.8438876109 -2.3060975610
64 2 13.0167768873 17.6085953533 -2.3432926829
65 2 17.2334792592 20.3733030957 -2.3804878049
66 2 14.1167862017 0.7711547783 -2.4176829268
67 2 18.3334885736 3.5358625207 -2.4548780488
68 2 22.5501909455 6.3005702632 -2.4920731707
69 2 4.4000372577 9.0652780056 -2.5292682927
70 2 8.6167396296 11.8299857480 -2.5664634146
71 2 12.8334420015 14.5946934904 -2.6036585366
72 2 17.0501443735 17.3594012328 -2.6408536585
73 2 21.2668467454 20.1241089752 -2.6780487805
74 2 18.1501536879 0.5219606578 -2.7152439024
75 2 22.3668560598 3.2866684002 -2.7524390244
76 2 4.2167023719 6.0513761426 -2.7896341463
77 2 8.4334047439 8.8160838851 -2.8268292683
78 2 12.6501071158 11.5807916275 -2.8640243902
79 2 16.8668094877 14.3454993699 -2.9012195122
80 2 21.0835118597 17.1102071123 -2.9384146341
81 2 25.3002142316 19.8749148547 -2.9756097561
82 2 22.1835211741 0.2727665373 -3.0128048780
83 2 4.0333674862 3.0374742797 -3.0500000000
84 2 8.2500698581 5.8021820221 -3.0871951220
85 2 12.4667722301 8.5668897646 -3.1243902439
86 2 16.6834746020 11.3315975070 -3.1615853659
87 2 20.9001769739 14.0963052494 -3.1987804878
88 2 25.1168793458 16.8610129918 -3.2359756098
89 2 6.9667256580 19.6257207342 -3.2731707317
90 2 3.8500326005 0.0235724168 -3.3103658537
91 2 8.0667349724 2.7882801592 -3.3475609756
92 2 12.2834373443 5.5529879016 -3.3847560976
93 2 16.5001397162 8.3176956440 -3.4219512195
94 2 20.7168420882 11.0824033865 -3.4591463415
95 2 24.9335444601 13.8471111289 -3.4963414634
96 2 6.7833907722 16.6118188713 -3.5335365854
97 2 11.0000931442 19.3765266137 -3.5707317073
98 2 15.2167955161 22.1412343561 -3.6079268293
99 2 12.1001024586 2.5390860387 -3.6451219512
100 2 16.3168048305 5.3037937811 -3.6823170732
101 2 20.5335072024 8.0685015235 -3.7195121951
102 2 24.7502095744 10.8332092659 -3.7567073171
103 2 6.6000558865 13.5979170084 -3.7939024390
104 2 10.8167582584 16.3626247508 -3.8310975610
105 2 15.0334606304 19.1273324932 -3.8682926829
106 2 19.2501630023 21.8920402356 -3.9054878049
107 2 16.1334699448 2.2898919182 -3.9426829268
108 2 20.3501723167 5.0545996606 -3.9798780488
109 2 24.5668746886 7.8193074030 -4.0170731707
110 2 6.4167210008 10.5840151454 -4.0542682927
111 2 10.6334233727 13.3487228878 -4.0914634146
112 2 14.8501257446 16.1134306303 -4.1286585366
113 2 19.0668281166 18.8781383727 -4.1658536585
114 2 23.2835304885 21.6428461151 -4.2030487805
115 2 20.1668374310 2.0406977977 -4.2402439024
116 2 2.0166837431 4.8054055401 -4.2774390244
117 2 6.2333861150 7.5701132825 -4.3146341463
118 2 10.4500884870 10.3348210249 -4.3518292683
119 2 14.6667908589 13.0995287673 -4.3890243902
120 2 18.8834932308 15.8642365097 -4.4262195122
121 2 23.1001956027 18.6289442522 -4.4634146341
122 2 27.3168979747 21.3936519946 -4.5006097561
123 2 1.8333488574 1.7915036772 -4.5378048780
124 2 6.0500512293 4.5562114196 -4.5750000000
125 2 10.2667536012 7.3209191620 -4.6121951220
126 2 14.4834559732 10.0856269044 -4.6493902439
127 2 18.7001583451 12.8503346468 -4.6865853659
128 2 22.9168607170 15.6150423892 -4.7237804878
129 2 27.1335630889 18.3797501316 -4.7609756098
130 2 8.9834094011 21.1444578741 -4.7981707317
131 2 5.8667163436 1.5423095567 -4.8353658537
132 2 10.0834187155 4.3070172991 -4.8725609756
133 2 14.3001210874 7.0717250415 -4.9097560976
134 2 18.5168234593 9.8364327839 -4.9469512195
135 2 22.7335258313 12.6011405263 -4.9841463415
136 2 26.9502282032 15.3658482687 -5.0213414634
137 2 8.8000745153 18.1305560111 -5.0585365854
138 2 13.0167768873 20.8952637536 -5.0957317073
139 2 9.9000838297 1.2931154362 -5.1329268293
140 2 14.1167862017 4.0578231786 -5.1701219512
141 2 18.3334885736 6.8225309210 -5.2073170732
142 2 22.5501909455 9.5872386634 -5.2445121951
143 2 4.4000372577 12.3519464058 -5.2817073171
144 2 8.6167396296 15.1166541482 -5.3189024390
145 2 12.8334420015 17.8813618906 -5.3560975610
146 2 17.0501443735 20.6460696330 -5.3932926829
147 2 13.9334513159 1.0439213156 -5.4304878049
148 2 18.1501536879 3.8086290581 -5.4676829268
149 2 22.3668560598 6.5733368005 -5.5048780488
150 2 4.2167023719 9.3380445429 -5.5420731707
151 2 8.4334047439 12.1027522853 -5.5792682927
152 2 12.6501071158 14.8674600277 -5.6164634146
153 2 16.8668094877 17.6321677701 -5.6536585366
154 2 21.0835118597 20.3968755125 -5.6908536585
155 2 17.9668188021 0.7947271951 -5.7280487805
156 2 22.1835211741 3.5594349376 -5.7652439024
157 2 4.0333674862 6.3241426800 -5.8024390244
158 2 8.2500698581 9.0888504224 -5.8396341463
159 2 12.4667722301 11.8535581648 -5.8768292683
160 2 16.6834746020 14.6182659072 -5.9140243902
161 2 20.9001769739 17.3829736496 -5.9512195122
162 2 25.1168793458 20.1476813920 -5.9884146341
163 2 22.0001862883 0.5455330746 -6.0256097561
164 2 3.8500326005 3.3102408170 -6.0628048780
165 2 8.0667349724 6.0749485595 -6.1000000000
166 2 12.2834373443 8.8396563019 -6.1371951220
167 2 16.5001397162 11.6043640443 -6.1743902439
168 2 20.7168420882 14.3690717867 -6.2115853659
169 2 24.9335444601 17.1337795291 -6.2487804878
170 2 6.7833907722 19.8984872715 -6.2859756098
171 2 3.6666977147 0.2963389541 -6.3231707317
172 2 7.8834000867 3.0610466965 -6.3603658537
173 2 12.1001024586 5.8257544389 -6.3975609756
174 2 16.3168048305 8.5904621814 -6.4347560976
175 2 20.5335072024 11.3551699238 -6.4719512195
176 2 24.7502095744 14.1198776662 -6.5091463415
177 2 6.6000558865 16.8845854086 -6.5463414634
178 2 10.8167582584 19.6492931510 -6.5835365854
179 2 7.7000652009 0.0471448336 -6.6207317073
180 2 11.9167675728 2.8118525760 -6.6579268293
181 2 16.1334699448 5.5765603184 -6.6951219512
182 2 20.3501723167 8.3412680608 -6.7323170732
183 2 24.5668746886 11.1059758033 -6.7695121951
184 2 6.4167210008 13.8706835457 -6.8067073171
185 2 10.6334233727 16.6353912881 -6.8439024390
186 2 14.8501257446 19.4000990305 -6.8810975610
187 2 19.0668281166 22.1648067729 -6.9182926829
188 2 15.9501350590 2.5626584555 -6.9554878049
189 2 20.1668374310 5.3273661979 -6.9926829268
190 2 24.3835398029 8.0920739403 -7.0298780488
191 2 6.2333861150 10.8567816827 -7.0670731707
192 2 10.4500884870 13.6214894252 -7.1042682927
193 2 14.6667908589 16.3861971676 -7.1414634146
194 2 18.8834932308 19.1509049100 -7.1786585366
195 2 23.1001956027 21.9156126524 -7.2158536585
196 2 19.9835025452 2.3134643350 -7.2530487805
197 2 1.8333488574 5.0781720774 -7.2902439024
198 2 6.0500512293 7.8428798198 -7.3274390244
199 2 10.2667536012 10.6075875622 -7.3646341463
200 2 14.4834559732 13.3722953046 -7.4018292683
201 2 18.7001583451 16.1370030471 -7.4390243902
202 2 22.9168607170 18.9017107895 -7.4762195122
203 2 27.1335630889 21.6664185319 -7.5134146341
204 2 1.6500139716 2.0642702145 -7.5506097561
205 2 5.8667163436 4.8289779569 -7.5878048780
206 2 10.0834187155 7.5936856993 -7.6250000000
207 2 14.3001210874 10.3583934417 -7.6621951220
208 2 18.5168234593 13.1231011841 -7.6993902439
209 2 22.7335258313 15.8878089266 -7.7365853659
210 2 26.9502282032 18.6525166690 -7.7737804878
211 2 8.8000745153 21.4172244114 -7.8109756098
212 2 5.6833814578 1.8150760940 -7.8481707317
213 2 9.9000838297 4.5797838364 -7.8853658537
214 2 14.1167862017 7.3444915788 -7.9225609756
215 2 18.3334885736 10.1091993212 -7.9597560976
216 2 22.5501909455 12.8739070636 -7.9969512195
217 2 26.7668933175 15.6386148060 -8.0341463415
218 2 8.6167396296 18.4033225485 -8.0713414634
219 2 12.8334420015 21.1680302909 -8.1085365854
220 2 9.7167489440 1.5658819735 -8.1457317073
221 2 13.9334513159 4.3305897159 -8.1829268293
222 2 18.1501536879 7.0952974583 -8.2201219512
223 2 22.3668560598 9.8600052007 -8.2573170732
224 2 4.2167023719 12.6247129431 -8.2945121951
225 2 8.4334047439 15.3894206855 -8.3317073171
226 2 12.6501071158 18.1541284279 -8.3689024390
227 2 16.8668094877 20.9188361704 -8.4060975610
228 2 13.7501164302 1.3166878530 -8.4432926829
229 2 17.9668188021 4.0813955954 -8.4804878049
230 2 22.1835211741 6.8461033378 -8.5176829268
231 2 4.0333674862 9.6108110802 -8.5548780488
232 2 8.2500698581 12.3755188226 -8.5920731707
233 2 12.4667722301 15.1402265650 -8.6292682927
234 2 16.6834746020 17.9049343074 -8.6664634146
235 2 20.9001769739 20.6696420498 -8.7036585366
236 2 17.7834839164 1.0674937325 -8.7408536585
237 2 22.0001862883 3.8322014749 -8.7780487805
238 2 3.8500326005 6.5969092173 -8.8152439024
239 2 8.0667349724 9.3616169597 -8.8524390244
240 2 12.2834373443 12.1263247021 -8.8896341463
241 2 16.5001397162 14.8910324445 -8.9268292683
242 2 20.7168420882 17.6557401869 -8.9640243902
243 2 24.9335444601 20.4204479293 -9.0012195122
244 2 21.8168514026 0.8182996119 -9.0384146341
245 2 3.6666977147 3.5830073544 -9.0756097561
246 2 7.8834000867 6.3477150968 -9.1128048780
247 2 12.1001024586 9.1124228392 -9.1500000000
248 2 16.3168048305 11.8771305816 -9.1871951220
249 2 20.5335072024 14.6418383240 -9.2243902439
250 2 24.7502095744 17.4065460664 -9.2615853659
251 2 28.9669119463 20.1712538088 -9.2987804878
252 2 3.4833628290 0.5691054914 -9.3359756098
253 2 7.7000652009 3.3338132338 -9.3731707317
254 2 11.9167675728 6.0985209763 -9.4103658537
255 2 16.1334699448 8.8632287187 -9.4475609756
256 2 20.3501723167 11.6279364611 -9.4847560976
257 2 24.5668746886 14.3926442035 -9.5219512195
258 2 6.4167210008 17.1573519459 -9.5591463415
259 2 10.6334233727 19.9220596883 -9.5963414634
260 2 7.5167303152 0.3199113709 -9.6335365854
261 2 11.7334326871 3.0846191133 -9.6707317073
262 2 15.9501350590 5.8493268557 -9.7079268293
263 2 20.1668374310 8.6140345982 -9.7451219512
264 2 24.3835398029 11.3787423406 -9.7823170732
265 2 6.2333861150 14.1434500830 -9.8195121951
266 2 10.4500884870 16.9081578254 -9.8567073171
267 2 14.6667908589 19.6728655678 -9.8939024390
268 2 11.5500978014 0.0707172504 -9.9310975610
269 2 15.7668001733 2.8354249928 -9.9682926829
270 2 19.9835025452 5.6001327352 -10.0054878049
271 2 24.2002049172 8.3648404777 -10.0426829268
272 2 6.0500512293 11.1295482201 -10.0798780488
273 2 10.2667536012 13.8942559625 -10.1170731707
274 2 14.4834559732 16.6589637049 -10.1542682927
275 2 18.7001583451 19.4236714473 -10.1914634146
276 2 22.9168607170 22.1883791897 -10.2286585366
277 2 19.8001676595 2.5862308723 -10.2658536585
278 2 24.0168700314 5.3509386147 -10.3030487805
279 2 5.8667163436 8.1156463571 -10.3402439024
280 2 10.0834187155 10.8803540996 -10.3774390244
281 2 14.3001210874 13.6450618420 -10.4146341463
282 2 18.5168234593 16.4097695844 -10.4518292683
283 2 22.7335258313 19.1744773268 -10.4890243902
284 2 26.9502282032 21.9391850692 -10.5262195122
285 2 1.4666790859 2.3370367518 -10.5634146341
286 2 5.6833814578 5.1017444942 -10.6006097561
287 2 9.9000838297 7.8664522366 -10.6378048780
288 2 14.1167862017 10.6311599790 -10.6750000000
289 2 18.3334885736 13.3958677215 -10.7121951220
290 2 22.5501909455 16.1605754639 -10.7493902439
291 2 26.7668933175 18.9252832063 -10.7865853659
292 2 8.6167396296 21.6899909487 -10.8237804878
293 2 5.5000465721 2.0878426313 -10.8609756098
294 2 9.7167489440 4.8525503737 -10.8981707317
295 2 13.9334513159 7.6172581161 -10.9353658537
296 2 18.1501536879 10.3819658585 -10.9725609756
297 2 22.3668560598 13.1466736009 -11.0097560976
298 2 26.5835584317 15.9113813434 -11.0469512195
299 2 8.4334047439 18.6760890858 -11.0841463415
300 2 12.6501071158 21.4407968282 -11.1213414634
301 2 9.5334140583 1.8386485108 -11.1585365854
302 2 13.7501164302 4.6033562532 -11.1957317073
303 2 17.9668188021 7.3680639956 -11.2329268293
304 2 22.1835211741 10.1327717380 -11.2701219512
305 2 26.4002235460 12.8974794804 -11.3073170732
306 2 8.2500698581 15.6621872228 -11.3445121951
307 2 12.4667722301 18.4268949653 -11.3817073171
308 2 16.6834746020 21.1916027077 -11.4189024390
309 2 13.5667815445 1.5894543903 -11.4560975610
310 2 17.7834839164 4.3541621327 -11.4932926829
311 2 22.0001862883 7.1188698751 -11.5304878049
312 2 3.8500326005 9.8835776175 -11.5676829268
313 2 8.0667349724 12.6482853599 -11.6048780488
314 2 12.2834373443 15.4129931023 -11.6420731707
315 2 16.5001397162 18.1777008447 -11.6792682927
316 2 20.7168420882 20.9424085872 -11.7164634146
317 2 17.6001490307 1.3402602698 -11.7536585366
318 2 21.8168514026 4.1049680122 -11.7908536585
319 2 3.6666977147 6.8696757546 -11.8280487805
320 2 7.8834000867 9.6343834970 -11.8652439024
321 2 12.1001024586 12.3990912394 -11.9024390244
322 2 16.3168048305 15.1637989818 -11.9396341463
323 2 20.5335072024 17.9285067242 -11.9768292683
324 2 24.7502095744 20.6932144667 -12.0140243902
325 2 21.6335165169 1.0910661493 -12.0512195122
326 2 3.4833628290 3.8557738917 -12.0884146341
327 2 7.7000652009 6.6204816341 -12.1256097561
328 2 11.9167675728 9.3851893765 -12.1628048780
329 2 16.1334699448 12.1498971189 -12.2000000000
330 2 20.3501723167 14.9146048613 -12.2371951220
331 2 24.5668746886 17.6793126037 -12.2743902439
332 2 28.7835770606 20.4440203461 -12.3115853659
333 2 3.3000279432 0.8418720287 -12.3487804878
334 2 7.5167303152 3.6065797712 -12.3859756098
335 2 11.7334326871 6.3712875136 -12.4231707317
336 2 15.9501350590 9.1359952560 -12.4603658537
337 2 20.1668374310 11.9007029984 -12.4975609756
338 2 24.3835398029 14.6654107408 -12.5347560976
339 2 6.2333861150 17.4301184832 -12.5719512195
340 2 10.4500884870 20.1948262256 -12.6091463415
341 2 7.3333954294 0.5926779082 -12.6463414634
342 2 11.5500978014 3.3573856507 -12.6835365854
343 2 15.7668001733 6.1220933931 -12.7207317073
344 2 19.9835025452 8.8868011355 -12.7579268293
345 2 24.2002049172 11.6515088779 -12.7951219512
346 2 6.0500512293 14.4162166203 -12.8323170732
347 2 10.2667536012 17.1809243627 -12.8695121951
348 2 14.4834559732 19.9456321051 -12.9067073171
349 2 11.3667629156 0.3434837877 -12.9439024390
350 2 15.5834652876 3.1081915301 -12.9810975610
351 2 19.8001676595 5.8728992726 -13.0182926829
352 2 24.0168700314 8.6376070150 -13.0554878049
353 2 5.8667163436 11.4023147574 -13.0926829268
354 2 10.0834187155 14.1670224998 -13.1298780488
355 2 14.3001210874 16.9317302422 -13.1670731707
356 2 18.5168234593 19.6964379846 -13.2042682927
357 2 15.4001304018 0.0942896672 -13.2414634146
358 2 19.6168327738 2.8589974096 -13.2786585366
359 2 23.8335351457 5.6237051520 -13.3158536585
360 2 5.6833814578 8.3884128945 -13.3530487805
361 2 9.9000838297 11.1531206369 -13.3902439024
362 2 14.1167862017 13.9178283793 -13.4274390244
363 2 18.3334885736 16.6825361217 -13.4646341463
364 2 22.5501909455 19.4472438641 -13.5018292683
365 2 26.7668933175 22.2119516065 -13.5390243902
366 2 1.2833442002 2.6098032891 -13.5762195122
367 2 5.5000465721 5.3745110315 -13.6134146341
368 2 9.7167489440 8.1392187739 -13.6506097561
369 2 13.9334513159 10.9039265164 -13.6878048780
370 2 18.1501536879 13.6686342588 -13.7250000000
371 2 22.3668560598 16.4333420012 -13.7621951220
372 2 26.5835584317 19.1980497436 -13.7993902439
373 2 8.4334047439 21.9627574860 -13.8365853659
374 2 5.3167116863 2.3606091686 -13.8737804878
375 2 9.5334140583 5.1253169110 -13.9109756098
376 2 13.7501164302 7.8900246534 -13.9481707317
377 2 17.9668188021 10.6547323958 -13.9853658537
378 2 22.1835211741 13.4194401383 -14.0225609756
379 2 26.4002235460 16.1841478807 -14.0597560976
380 2 8.2500698581 18.9488556231 -14.0969512195
381 2 12.4667722301 21.7135633655 -14.1341463415
382 2 9.3500791725 2.1114150481 -14.1713414634
383 2 13.5667815445 4.8761227905 -14.2085365854
384 2 17.7834839164 7.6408305329 -14.2457317073
385 2 22.0001862883 10.4055382753 -14.2829268293
386 2 26.2168886603 13.1702460178 -14.3201219512
387 2 8.0667349724 15.9349537602 -14.3573170732
388 2 12.2834373443 18.6996615026 -14.3945121951
389 2 16.5001397162 21.4643692450 -14.4317073171
390 2 13.3834466587 1.8622209276 -14.4689024390
391 2 17.6001490307 4.6269286700 -14.5060975610
392 2 21.8168514026 7.3916364124 -14.5432926829
393 2 3.6666977147 10.1563441548 -14.5804878049
394 2 7.8834000867 12.9210518972 -14.6176829268
395 2 12.1001024586 15.6857596397 -14.6548780488
396 2 16.3168048305 18.4504673821 -14.6920731707
397 2 20.5335072024 21.2151751245 -14.7292682927
398 2 17.4168141449 1.6130268071 -14.7664634146
399 2 21.6335165169 4.3777345495 -14.8036585366
400 2 3.4833628290 7.1424422919 -14.8408536585
401 2 7.7000652009 9.9071500343 -14.8780487805
402 2 11.9167675728 12.6718577767 -14.9152439024
403 2 16.1334699448 15.4365655191 -14.9524390244
404 2 20.3501723167 18.2012732616 -14.9896341463
405 2 24.5668746886 20.9659810040 -15.0268292683
406 2 21.4501816311 1.3638326866 -15.0640243902
407 2 3.3000279432 4.1285404290 -15.1012195122
408 2 7.5167303152 6.8932481714 -15.1384146341
409 2 11.7334326871 9.6579559138 -15.1756097561
410 2 15.9501350590 12.4226636562 -15.2128048780
411 2 20.1668374310 15.1873713986 -15.2500000000
412 2 24.3835398029 17.9520791410 -15.2871951220
413 2 28.6002421748 20.7167868835 -15.3243902439
414 2 3.1166930575 1.1146385661 -15.3615853659
415 2 7.3333954294 3.8793463085 -15.3987804878
416 2 11.5500978014 6.6440540509 -15.4359756098
417 2 15.7668001733 9.4087617933 -15.4731707317
418 2 19.9835025452 12.1734695357 -15.5103658537
419 2 24.2002049172 14.9381772781 -15.5475609756
420 2 6.0500512293 17.7028850205 -15.5847560976
421 2 10.2667536012 20.4675927629 -15.6219512195
422 2 7.1500605437 0.8654444456 -15.6591463415
423 2 11.3667629156 3.6301521880 -15.6963414634
424 2 15.5834652876 6.3948599304 -15.7335365854
425 2 19.8001676595 9.1595676728 -15.7707317073
426 2 24.0168700314 11.9242754152 -15.8079268293
427 2 5.8667163436 14.6889831576 -15.8451219512
428 2 10.0834187155 17.4536909000 -15.8823170732
429 2 14.3001210874 20.2183986424 -15.9195121951
430 2 11.1834280299 0.6162503250 -15.9567073171
431 2 15.4001304018 3.3809580675 -15.9939024390
432 2 19.6168327738 6.1456658099 -16.0310975610
433 2 23.8335351457 8.9103735523 -16.0682926829
434 2 5.6833814578 11.6750812947 -16.1054878049
435 2 9.9000838297 14.4397890371 -16.1426829268
436 2 14.1167862017 17.2044967795 -16.1798780488
437 2 18.3334885736 19.9692045219 -16.2170731707
438 2 15.2167955161 0.3670562045 -16.2542682927
439 2 19.4334978880 3.1317639469 -16.2914634146
440 2 23.6502002600 5.8964716894 -16.3286585366
441 2 5.5000465721 8.6611794318 -16.3658536585
442 2 9.7167489440 11.4258871742 -16.4030487805
443 2 13.9334513159 14.1905949166 -16.4402439024
444 2 18.1501536879 16.9553026590 -16.4774390244
445 2 22.3668560598 19.7200104014 -16.5146341463
446 2 19.2501630023 0.1178620840 -16.5518292683
447 2 1.1000093144 2.8825698264 -16.5890243902
448 2 5.3167116863 5.6472775688 -16.6262195122
449 2 9.5334140583 8.4119853113 -16.6634146341
450 2 13.7501164302 11.1766930537 -16.7006097561
451 2 17.9668188021 13.9414007961 -16.7378048780
452 2 22.1835211741 16.7061085385 -16.7750000000
453 2 26.4002235460 19.4708162809 -16.8121951220
454 2 8.2500698581 22.2355240233 -16.8493902439
455 2 5.1333768006 2.6333757059 -16.8865853659
456 2 9.3500791725 5.3980834483 -16.9237804878
457 2 13.5667815445 8.1627911908 -16.9609756098
458 2 17.7834839164 10.9274989332 -16.9981707317
459 2 22.0001862883 13.6922066756 -17.0353658537
460 2 26.2168886603 16.4569144180 -17.0725609756
461 2 8.0667349724 19.2216221604 -17.1097560976
462 2 12.2834373443 21.9863299028 -17.1469512195
463 2 9.1667442868 2.3841815854 -17.1841463415
464 2 13.3834466587 5.1488893278 -17.2213414634
465 2 17.6001490307 7.9135970702 -17.2585365854
466 2 21.8168514026 10.6783048127 -17.2957317073
467 2 26.0335537745 13.4430125551 -17.3329268293
468 2 7.8834000867 16.2077202975 -17.3701219512
469 2 12.1001024586 18.9724280399 -17.4073170732
470 2 16.3168048305 21.7371357823 -17.4445121951
471 2 13.2001117730 2.1349874649 -17.4817073171
472 2 17.4168141449 4.8996952073 -17.5189024390
473 2 21.6335165169 7.6644029497 -17.5560975610
474 2 3.4833628290 10.4291106921 -17.5932926829
475 2 7.7000652009 13.1938184346 -17.6304878049
476 2 11.9167675728 15.9585261770 -17.6676829268
477 2 16.1334699448 18.7232339194 -17.7048780488
478 2 20.3501723167 21.4879416618 -17.7420731707
479 2 17.2334792592 1.8857933444 -17.7792682927
480 2 21.4501816311 4.6505010868 -17.8164634146
481 2 3.3000279432 7.4152088292 -17.8536585366
482 2 7.5167303152 10.1799165716 -17.8908536585
483 2 11.7334326871 12.9446243140 -17.9280487805
484 2 15.9501350590 15.7093320565 -17.9652439024
485 2 20.1668374310 18.4740397989 -18.0024390244
486 2 24.3835398029 21.2387475413 -18.0396341463
487 2 21.2668467454 1.6365992239 -18.0768292683
488 2 3.1166930575 4.4013069663 -18.1140243902
489 2 7.3333954294 7.1660147087 -18.1512195122
490 2 11.5500978014 9.9307224511 -18.1884146341
491 2 15.7668001733 12.6954301935 -18.2256097561
492 2 19.9835025452 15.4601379359 -18.2628048780
493 2 24.2002049172 18.2248456784 -18.3000000000
494 2 28.4169072891 20.9895534208 -18.3371951220
495 2 2.9333581718 1.3874051034 -18.3743902439
496 2 7.1500605437 4.1521128458 -18.4115853659
497 2 11.3667629156 6.9168205882 -18.4487804878
498 2 15.5834652876 9.6815283306 -18.4859756098
499 2 19.8001676595 12.4462360730 -18.5231707317
500 2 24.0168700314 15.2109438154 -18.5603658537
501 2 28.2335724034 17.9756515578 -18.5975609756
502 2 10.0834187155 20.7403593003 -18.6347560976
503 2 6.9667256580 1.1382109829 -18.6719512195
504 2 11.1834280299 3.9029187253 -18.7091463415
505 2 15.4001304018 6.6676264677 -18.7463414634
506 2 19.6168327738 9.4323342101 -18.7835365854
507 2 23.8335351457 12.1970419525 -18.8207317073
508 2 5.6833814578 14.9617496949 -18.8579268293
509 2 9.9000838297 17.7264574373 -18.8951219512
510 2 14.1167862017 20.4911651798 -18.9323170732
511 2 11.0000931442 0.8890168624 -18.9695121951
512 2 15.2167955161 3.6537246048 -19.0067073171
513 2 19.4334978880 6.4184323472 -19.0439024390
514 2 23.6502002600 9.1831400896 -19.0810975610
515 2 5.5000465721 11.9478478320 -19.1182926829
516 2 9.7167489440 14.7125555744 -19.1554878049
517 2 13.9334513159 17.4772633168 -19.1926829268
518 2 18.1501536879 20.2419710592 -19.2298780488
519 2 15.0334606304 0.6398227418 -19.2670731707
520 2 19.2501630023 3.4045304843 -19.3042682927
521 2 23.4668653742 6.1692382267 -19.3414634146
522 2 5.3167116863 8.9339459691 -19.3786585366
523 2 9.5334140583 11.6986537115 -19.4158536585
524 2 13.7501164302 14.4633614539 -19.4530487805
525 2 17.9668188021 17.2280691963 -19.4902439024
526 2 22.1835211741 19.9927769387 -19.5274390244
527 2 19.0668281166 0.3906286213 -19.5646341463
528 2 23.2835304885 3.1553363638 -19.6018292683
529 2 5.1333768006 5.9200441062 -19.6390243902
530 2 9.3500791725 8.6847518486 -19.6762195122
531 2 13.5667815445 11.4494595910 -19.7134146341
532 2 17.7834839164 14.2141673334 -19.7506097561
533 2 22.0001862883 16.9788750758 -19.7878048780
534 2 26.2168886603 19.7435828182 -19.8250000000
535 2 0.7333395429 0.1414345008 -19.8621951220
536 2 4.9500419149 2.9061422432 -19.8993902439
537 2 9.1667442868 5.6708499857 -19.9365853659
538 2 13.3834466587 8.4355577281 -19.9737804878
539 2 17.6001490307 11.2002654705 -20.0109756098
540 2 21.8168514026 13.9649732129 -20.0481707317
541 2 26.0335537745 16.7296809553 -20.0853658537
542 2 7.8834000867 19.4943886977 -20.1225609756
543 2 12.1001024586 22.2590964401 -20.1597560976
544 2 8.9834094011 2.6569481227 -20.1969512195
545 2 13.2001117730 5.4216558651 -20.2341463415
546 2 17.4168141449 8.1863636076 -20.2713414634
547 2 21.6335165169 10.9510713500 -20.3085365854
548 2 25.8502188888 13.7157790924 -20.3457317073
549 2 7.7000652009 16.4804868348 -20.3829268293
550 2 11.9167675728 19.2451945772 -20.4201219512
551 2 16.1334699448 22.0099023196 -20.4573170732
552 2 13.0167768873 2.4077540022 -20.4945121951
553 2 17.2334792592 5.1724617446 -20.5317073171
554 2 21.4501816311 7.9371694870 -20.5689024390
555 2 25.6668840031 10.7018772295 -20.6060975610
556 2 7.5167303152 13.4665849719 -20.6432926829
557 2 11.7334326871 16.2312927143 -20.6804878049
558 2 15.9501350590 18.9960004567 -20.7176829268
559 2 20.1668374310 21.7607081991 -20.7548780488
560 2 17.0501443735 2.1585598817 -20.7920731707
561 2 21.2668467454 4.9232676241 -20.8292682927
562 2 3.1166930575 7.6879753665 -20.8664634146
563 2 7.3333954294 10.4526831089 -20.9036585366
564 2 11.5500978014 13.2173908514 -20.9408536585
565 2 15.7668001733 15.9820985938 -20.9780487805
566 2 19.9835025452 18.7468063362 -21.0152439024
567 2 24.2002049172 21.5115140786 -21.0524390244
568 2 21.0835118597 1.9093657612 -21.0896341463
569 2 2.9333581718 4.6740735036 -21.1268292683
570 2 7.1500605437 7.4387812460 -21.1640243902
571 2 11.3667629156 10.2034889884 -21.2012195122
572 2 15.5834652876 12.9681967309 -21.2384146341
573 2 19.8001676595 15.7329044733 -21.2756097561
574 2 24.0168700314 18.4976122157 -21.3128048780
575 2 28.2335724034 21.2623199581 -21.3500000000
576 2 2.7500232860 1.6601716407 -21.3871951220
577 2 6.9667256580 4.4248793831 -21.4243902439
578 2 11.1834280299 7.1895871255 -21.4615853659
579 2 15.4001304018 9.9542948679 -21.4987804878
580 2 19.6168327738 12.7190026103 -21.5359756098
581 2 23.8335351457 15.4837103528 -21.5731707317
582 2 28.0502375176 18.2484180952 -21.6103658537
583 2 9.9000838297 21.0131258376 -21.6475609756
584 2 6.7833907722 1.4109775202 -21.6847560976
585 2 11.0000931442 4.1756852626 -21.7219512195
586 2 15.2167955161 6.9403930050 -21.7591463415
587 2 19.4334978880 9.7051007474 -21.7963414634
588 2 23.6502002600 12.4698084898 -21.8335365854
589 2 5.5000465721 15.2345162322 -21.8707317073
590 2 9.7167489440 17.9992239747 -21.9079268293
591 2 13.9334513159 20.7639317171 -21.9451219512
592 2 10.8167582584 1.1617833997 -21.9823170732
593 2 15.0334606304 3.9264911421 -22.0195121951
594 2 19.2501630023 6.6911988845 -22.0567073171
595 2 23.4668653742 9.4559066269 -22.0939024390
596 2 5.3167116863 12.2206143693 -22.1310975610
597 2 9.5334140583 14.9853221117 -22.1682926829
598 2 13.7501164302 17.7500298541 -22.2054878049
599 2 17.9668188021 20.5147375966 -22.2426829268
600 2 14.8501257446 0.9125892792 -22.2798780488
601 2 19.0668281166 3.6772970216 -22.3170731707
602 2 23.2835304885 6.4420047640 -22.3542682927
603 2 5.1333768006 9.2067125064 -22.3914634146
604 2 9.3500791725 11.9714202488 -22.4286585366
605 2 13.5667815445 14.7361279912 -22.4658536585
606 2 17.7834839164 17.5008357336 -22.5030487805
607 2 22.0001862883 20.2655434760 -22.5402439024
608 2 18.8834932308 0.6633951587 -22.5774390244
609 2 23.1001956027 3.4281029011 -22.6146341463
610 2 4.9500419149 6.1928106435 -22.6518292683
611 2 9.1667442868 8.9575183859 -22.6890243902
612 2 13.3834466587 11.7222261283 -22.7262195122
613 2 17.6001490307 14.4869338707 -22.7634146341
614 2 21.8168514026 17.2516416131 -22.8006097561
615 2 26.0335537745 20.0163493555 -22.8378048780
616 2 0.5500046572 0.4142010381 -22.8750000000
617 2 4.7667070291 3.1789087806 -22.9121951220
618 2 8.9834094011 5.9436165230 -22.9493902439
619 2 13.2001117730 8.7083242654 -22.9865853659
620 2 17.4168141449 11.4730320078 -23.0237804878
621 2 21.6335165169 14.2377397502 -23.0609756098
622 2 25.8502188888 17.0024474926 -23.0981707317
623 2 7.7000652009 19.7671552350 -23.1353658537
624 2 4.5833721434 0.1650069176 -23.1725609756
625 2 8.8000745153 2.9297146600 -23.2097560976