ITEM: TIMESTEP
0
ITEM: NUMBER OF ATOMS
3588
ITEM: BOX BOUNDS xy xz yz pp ff pp
0.0000000000000000e+00 1.6295999999999999e+01 0.0000000000000000e+00
-1.2222000000000000e+02 1.2222000000000000e+02 4.0739999999999998e+00
0.0000000000000000e+00 2.0370000000000001e+01 0.0000000000000000e+00
ITEM: ATOMS id type x y z c_csym c_eng 
1 1 4.074 -119.007 19.954 0.0457647 -3.41014 
2 1 8.148 -119.007 19.954 0.0457647 -3.41014 
3 1 12.222 -119.007 19.954 0.0457647 -3.41014 
4 1 6.111 -120.675 18.7085 15.4554 -3.11324 
5 1 10.185 -120.675 18.7085 15.4554 -3.11324 
6 1 14.259 -120.675 18.7085 15.4554 -3.11324 
7 1 4.074 -113.347 19.1321 0.00131192 -3.44302 
8 1 8.148 -113.347 19.1321 0.00131192 -3.44302 
9 1 12.222 -113.347 19.1321 0.00131192 -3.44302 
10 1 4.074 -116.189 19.5366 0.00785279 -3.44261 
11 1 6.111 -117.85 18.3169 0.00877213 -3.44237 
12 1 6.111 -114.992 17.9096 0.00106136 -3.4446 
13 1 4.074 -116.644 16.694 0.00909585 -3.44698 
14 1 8.148 -116.189 19.5366 0.00785279 -3.44261 
15 1 10.185 -117.85 18.3169 0.00877213 -3.44237 
16 1 10.185 -114.992 17.9096 0.00106136 -3.4446 
17 1 8.148 -116.644 16.694 0.00909585 -3.44698 
18 1 12.222 -116.189 19.5366 0.00785279 -3.44261 
19 1 14.259 -117.85 18.3169 0.00877213 -3.44237 
20 1 14.259 -114.992 17.9096 0.00106136 -3.4446 
21 1 12.222 -116.644 16.694 0.00909585 -3.44698 
22 1 4.074 -119.508 17.1197 6.96306 -3.33082 
23 1 6.111 -121.045 15.8495 30.7853 -2.89157 
24 1 6.111 -118.263 15.4759 0.00974704 -3.43608 
25 1 4.074 -119.87 14.2476 7.51887 -3.30505 
26 1 8.148 -119.508 17.1197 6.96306 -3.33082 
27 1 10.185 -121.045 15.8495 30.7853 -2.89157 
28 1 10.185 -118.263 15.4759 0.00974704 -3.43608 
29 1 8.148 -119.87 14.2476 7.51887 -3.30505 
30 1 12.222 -119.508 17.1197 6.96306 -3.33082 
31 1 14.259 -121.045 15.8495 30.7853 -2.89157 
32 1 14.259 -118.263 15.4759 0.00974704 -3.43608 
33 1 12.222 -119.87 14.2476 7.51887 -3.30505 
34 1 6.111 -121.412 12.9972 30.915 -2.8907 
35 1 10.185 -121.412 12.9972 30.915 -2.8907 
36 1 14.259 -121.412 12.9972 30.915 -2.8907 
37 1 6.111 -108.868 19.9499 0.000224209 -3.44368 
38 1 6.111 -106.017 19.5435 7.30031e-05 -3.44385 
39 1 4.074 -107.648 18.3205 7.59119e-05 -3.44384 
40 1 10.185 -108.868 19.9499 0.000224209 -3.44368 
41 1 10.185 -106.017 19.5435 7.30031e-05 -3.44385 
42 1 8.148 -107.648 18.3205 7.59119e-05 -3.44384 
43 1 14.259 -108.868 19.9499 0.000224209 -3.44368 
44 1 14.259 -106.017 19.5435 7.30031e-05 -3.44385 
45 1 12.222 -107.648 18.3205 7.59119e-05 -3.44384 
46 1 4.074 -110.499 18.7266 0.000293141 -3.4436 
47 1 6.111 -112.136 17.5043 0.000214784 -3.44423 
48 1 6.111 -109.282 17.0982 5.56807e-05 -3.44415 
49 1 4.074 -110.918 15.8769 0.000491567 -3.44462 
50 1 8.148 -110.499 18.7266 0.000293141 -3.4436 
51 1 10.185 -112.136 17.5043 0.000214784 -3.44423 
52 1 10.185 -109.282 17.0982 5.56807e-05 -3.44415 
53 1 8.148 -110.918 15.8769 0.000491567 -3.44462 
54 1 12.222 -110.499 18.7266 0.000293141 -3.4436 
55 1 14.259 -112.136 17.5043 0.000214784 -3.44423 
56 1 14.259 -109.282 17.0982 5.56807e-05 -3.44415 
57 1 12.222 -110.918 15.8769 0.000491567 -3.44462 
58 1 4.074 -113.777 16.2844 0.00186438 -3.44518 
59 1 6.111 -115.407 15.064 0.00121873 -3.44508 
60 1 6.111 -112.549 14.6556 0.000558493 -3.4446 
61 1 4.074 -114.174 13.4331 0.000194589 -3.44428 
62 1 8.148 -113.777 16.2844 0.00186438 -3.44518 
63 1 10.185 -115.407 15.064 0.00121873 -3.44508 
64 1 10.185 -112.549 14.6556 0.000558493 -3.4446 
65 1 8.148 -114.174 13.4331 0.000194589 -3.44428 
66 1 12.222 -113.777 16.2844 0.00186438 -3.44518 
67 1 14.259 -115.407 15.064 0.00121873 -3.44508 
68 1 14.259 -112.549 14.6556 0.000558493 -3.4446 
69 1 12.222 -114.174 13.4331 0.000194589 -3.44428 
70 1 4.074 -117.03 13.8433 0.000946298 -3.44481 
71 1 6.111 -118.636 12.6201 0.00647337 -3.43704 
72 1 6.111 -115.791 12.2095 0.00051554 -3.44505 
73 1 4.074 -117.407 10.9878 0.00551713 -3.44381 
74 1 8.148 -117.03 13.8433 0.000946298 -3.44481 
75 1 10.185 -118.636 12.6201 0.00647337 -3.43704 
76 1 10.185 -115.791 12.2095 0.00051554 -3.44505 
77 1 8.148 -117.407 10.9878 0.00551713 -3.44381 
78 1 12.222 -117.03 13.8433 0.000946298 -3.44481 
79 1 14.259 -118.636 12.6201 0.00647337 -3.43704 
80 1 14.259 -115.791 12.2095 0.00051554 -3.44505 
81 1 12.222 -117.407 10.9878 0.00551713 -3.44381 
82 1 2.037 -121.746 10.1623 35.5335 -2.76709 
83 1 2.037 -119.007 9.76904 0.0457647 -3.41014 
84 1 4.074 -120.236 11.3862 7.38854 -3.30001 
85 1 6.111 -121.746 10.1623 35.5335 -2.76709 
86 1 6.111 -119.007 9.76904 0.0457647 -3.41014 
87 1 4.074 -120.675 8.52351 15.4554 -3.11324 
88 1 8.148 -120.236 11.3862 7.38854 -3.30001 
89 1 10.185 -121.746 10.1623 35.5335 -2.76709 
90 1 10.185 -119.007 9.76904 0.0457647 -3.41014 
91 1 8.148 -120.675 8.52351 15.4554 -3.11324 
92 1 12.222 -120.236 11.3862 7.38854 -3.30001 
93 1 12.222 -120.675 8.52351 15.4554 -3.11324 
94 1 4.074 -98.6845 19.9531 2.09991e-06 -3.44403 
95 1 8.148 -98.6845 19.9531 2.09991e-06 -3.44403 
96 1 12.222 -98.6845 19.9531 2.09991e-06 -3.44403 
97 1 6.111 -103.166 19.137 2.35333e-05 -3.44394 
98 1 6.111 -100.314 18.7303 7.56259e-06 -3.44399 
99 1 4.074 -101.945 17.5076 6.21464e-06 -3.444 
100 1 10.185 -103.166 19.137 2.35333e-05 -3.44394 
101 1 10.185 -100.314 18.7303 7.56259e-06 -3.44399 
102 1 8.148 -101.945 17.5076 6.21464e-06 -3.444 
103 1 14.259 -103.166 19.137 2.35333e-05 -3.44394 
104 1 14.259 -100.314 18.7303 7.56259e-06 -3.44399 
105 1 12.222 -101.945 17.5076 6.21464e-06 -3.444 
106 1 4.074 -104.797 17.9142 2.12842e-05 -3.44395 
107 1 6.111 -106.429 16.6917 1.65748e-05 -3.44411 
108 1 6.111 -103.576 16.2852 5.32378e-06 -3.44409 
109 1 4.074 -105.208 15.0629 4.61937e-05 -3.44423 
110 1 8.148 -104.797 17.9142 2.12842e-05 -3.44395 
111 1 10.185 -106.429 16.6917 1.65748e-05 -3.44411 
112 1 10.185 -103.576 16.2852 5.32378e-06 -3.44409 
113 1 8.148 -105.208 15.0629 4.61937e-05 -3.44423 
114 1 12.222 -104.797 17.9142 2.12842e-05 -3.44395 
115 1 14.259 -106.429 16.6917 1.65748e-05 -3.44411 
116 1 14.259 -103.576 16.2852 5.32378e-06 -3.44409 
117 1 12.222 -105.208 15.0629 4.61937e-05 -3.44423 
118 1 4.074 -108.062 15.4698 0.00014653 -3.44436 
119 1 6.111 -109.693 14.248 0.000214623 -3.44441 
120 1 6.111 -106.838 13.8408 7.46161e-05 -3.44427 
121 1 4.074 -108.466 12.6183 2.6434e-05 -3.44414 
122 1 8.148 -108.062 15.4698 0.00014653 -3.44436 
123 1 10.185 -109.693 14.248 0.000214623 -3.44441 
124 1 10.185 -106.838 13.8408 7.46161e-05 -3.44427 
125 1 8.148 -108.466 12.6183 2.6434e-05 -3.44414 
126 1 12.222 -108.062 15.4698 0.00014653 -3.44436 
127 1 14.259 -109.693 14.248 0.000214623 -3.44441 
128 1 14.259 -106.838 13.8408 7.46161e-05 -3.44427 
129 1 12.222 -108.466 12.6183 2.6434e-05 -3.44414 
130 1 4.074 -111.32 13.0255 7.47428e-05 -3.44418 
131 1 6.111 -112.942 11.8019 0.000266092 -3.44385 
132 1 6.111 -110.091 11.3951 0.000119773 -3.44387 
133 1 4.074 -111.717 10.1712 0.000668689 -3.44338 
134 1 8.148 -111.32 13.0255 7.47428e-05 -3.44418 
135 1 10.185 -112.942 11.8019 0.000266092 -3.44385 
136 1 10.185 -110.091 11.3951 0.000119773 -3.44387 
137 1 8.148 -111.717 10.1712 0.000668689 -3.44338 
138 1 12.222 -111.32 13.0255 7.47428e-05 -3.44418 
139 1 14.259 -112.942 11.8019 0.000266092 -3.44385 
140 1 14.259 -110.091 11.3951 0.000119773 -3.44387 
141 1 12.222 -111.717 10.1712 0.000668689 -3.44338 
142 1 2.037 -116.189 9.35165 0.00785279 -3.44261 
143 1 2.037 -113.347 8.94706 0.00131192 -3.44302 
144 1 4.074 -114.563 10.5775 0.001879 -3.44312 
145 1 6.111 -116.189 9.35165 0.00785279 -3.44261 
146 1 6.111 -113.347 8.94706 0.00131192 -3.44302 
147 1 4.074 -114.992 7.7246 0.00106136 -3.4446 
148 1 8.148 -114.563 10.5775 0.001879 -3.44312 
149 1 10.185 -116.189 9.35165 0.00785279 -3.44261 
150 1 10.185 -113.347 8.94706 0.00131192 -3.44302 
151 1 8.148 -114.992 7.7246 0.00106136 -3.4446 
152 1 12.222 -114.563 10.5775 0.001879 -3.44312 
153 1 12.222 -114.992 7.7246 0.00106136 -3.4446 
154 1 2.037 -119.508 6.93467 6.96306 -3.33082 
155 1 2.037 -116.644 6.509 0.00909585 -3.44698 
156 1 4.074 -117.85 8.13191 0.00877213 -3.44237 
157 1 6.111 -119.508 6.93467 6.96306 -3.33082 
158 1 6.111 -116.644 6.509 0.00909585 -3.44698 
159 1 4.074 -118.263 5.29089 0.00974704 -3.43608 
160 1 8.148 -117.85 8.13191 0.00877213 -3.44237 
161 1 10.185 -119.508 6.93467 6.96306 -3.33082 
162 1 10.185 -116.644 6.509 0.00909585 -3.44698 
163 1 8.148 -118.263 5.29089 0.00974704 -3.43608 
164 1 12.222 -117.85 8.13191 0.00877213 -3.44237 
165 1 12.222 -118.263 5.29089 0.00974704 -3.43608 
166 1 2.037 -119.87 4.06263 7.51887 -3.30505 
167 1 4.074 -121.045 5.66451 30.7853 -2.89157 
168 1 6.111 -119.87 4.06263 7.51887 -3.30505 
169 1 4.074 -121.412 2.81223 30.915 -2.8907 
170 1 8.148 -121.045 5.66451 30.7853 -2.89157 
171 1 10.185 -119.87 4.06263 7.51887 -3.30505 
172 1 8.148 -121.412 2.81223 30.915 -2.8907 
173 1 12.222 -121.045 5.66451 30.7853 -2.89157 
174 1 12.222 -121.412 2.81223 30.915 -2.8907 
175 1 4.074 -92.9796 19.1397 2.43723e-07 -3.44405 
176 1 8.148 -92.9796 19.1397 2.43723e-07 -3.44405 
177 1 12.222 -92.9796 19.1397 2.43723e-07 -3.44405 
178 1 4.074 -95.8321 19.5464 7.1778e-07 -3.44404 
179 1 6.111 -97.462 18.3237 2.42765e-06 -3.44402 
180 1 6.111 -94.6096 17.917 7.78737e-07 -3.44404 
181 1 4.074 -96.2397 16.6944 5.55948e-07 -3.44405 
182 1 8.148 -95.8321 19.5464 7.1778e-07 -3.44404 
183 1 10.185 -97.462 18.3237 2.42765e-06 -3.44402 
184 1 10.185 -94.6096 17.917 7.78737e-07 -3.44404 
185 1 8.148 -96.2397 16.6944 5.55948e-07 -3.44405 
186 1 12.222 -95.8321 19.5464 7.1778e-07 -3.44404 
187 1 14.259 -97.462 18.3237 2.42765e-06 -3.44402 
188 1 14.259 -94.6096 17.917 7.78737e-07 -3.44404 
189 1 12.222 -96.2397 16.6944 5.55948e-07 -3.44405 
190 1 4.074 -99.0922 17.101 1.85055e-06 -3.44403 
191 1 6.111 -100.723 15.8785 1.78006e-06 -3.44408 
192 1 6.111 -97.8703 15.4718 6.076e-07 -3.44408 
193 1 4.074 -99.5009 14.2494 4.87806e-06 -3.44412 
194 1 8.148 -99.0922 17.101 1.85055e-06 -3.44403 
195 1 10.185 -100.723 15.8785 1.78006e-06 -3.44408 
196 1 10.185 -97.8703 15.4718 6.076e-07 -3.44408 
197 1 8.148 -99.5009 14.2494 4.87806e-06 -3.44412 
198 1 12.222 -99.0922 17.101 1.85055e-06 -3.44403 
199 1 14.259 -100.723 15.8785 1.78006e-06 -3.44408 
200 1 14.259 -97.8703 15.4718 6.076e-07 -3.44408 
201 1 12.222 -99.5009 14.2494 4.87806e-06 -3.44412 
202 1 4.074 -102.354 14.6561 1.49315e-05 -3.44416 
203 1 6.111 -103.984 13.4338 2.46949e-05 -3.44419 
204 1 6.111 -101.131 13.0269 7.96917e-06 -3.44413 
205 1 4.074 -102.76 11.8043 2.76209e-06 -3.44409 
206 1 8.148 -102.354 14.6561 1.49315e-05 -3.44416 
207 1 10.185 -103.984 13.4338 2.46949e-05 -3.44419 
208 1 10.185 -101.131 13.0269 7.96917e-06 -3.44413 
209 1 8.148 -102.76 11.8043 2.76209e-06 -3.44409 
210 1 12.222 -102.354 14.6561 1.49315e-05 -3.44416 
211 1 14.259 -103.984 13.4338 2.46949e-05 -3.44419 
212 1 14.259 -101.131 13.0269 7.96917e-06 -3.44413 
213 1 12.222 -102.76 11.8043 2.76209e-06 -3.44409 
214 1 4.074 -105.613 12.2112 8.70381e-06 -3.44411 
215 1 6.111 -107.24 10.9883 4.70544e-05 -3.44393 
216 1 6.111 -104.389 10.5815 1.72253e-05 -3.44398 
217 1 4.074 -106.017 9.35849 7.30031e-05 -3.44385 
218 1 8.148 -105.613 12.2112 8.70381e-06 -3.44411 
219 1 10.185 -107.24 10.9883 4.70544e-05 -3.44393 
220 1 10.185 -104.389 10.5815 1.72253e-05 -3.44398 
221 1 8.148 -106.017 9.35849 7.30031e-05 -3.44385 
222 1 12.222 -105.613 12.2112 8.70381e-06 -3.44411 
223 1 14.259 -107.24 10.9883 4.70544e-05 -3.44393 
224 1 14.259 -104.389 10.5815 1.72253e-05 -3.44398 
225 1 12.222 -106.017 9.35849 7.30031e-05 -3.44385 
226 1 2.037 -110.499 8.54157 0.000293141 -3.4436 
227 1 2.037 -107.648 8.13551 7.59119e-05 -3.44384 
228 1 4.074 -108.868 9.76492 0.000224209 -3.44368 
229 1 6.111 -110.499 8.54157 0.000293141 -3.4436 
230 1 6.111 -107.648 8.13551 7.59119e-05 -3.44384 
231 1 4.074 -109.282 6.91316 5.56807e-05 -3.44415 
232 1 8.148 -108.868 9.76492 0.000224209 -3.44368 
233 1 10.185 -110.499 8.54157 0.000293141 -3.4436 
234 1 10.185 -107.648 8.13551 7.59119e-05 -3.44384 
235 1 8.148 -109.282 6.91316 5.56807e-05 -3.44415 
236 1 12.222 -108.868 9.76492 0.000224209 -3.44368 
237 1 12.222 -109.282 6.91316 5.56807e-05 -3.44415 
238 1 2.037 -113.777 6.09942 0.00186438 -3.44518 
239 1 2.037 -110.918 5.69187 0.000491567 -3.44462 
240 1 4.074 -112.136 7.3193 0.000214784 -3.44423 
241 1 6.111 -113.777 6.09942 0.00186438 -3.44518 
242 1 6.111 -110.918 5.69187 0.000491567 -3.44462 
243 1 4.074 -112.549 4.47055 0.000558493 -3.4446 
244 1 8.148 -112.136 7.3193 0.000214784 -3.44423 
245 1 10.185 -113.777 6.09942 0.00186438 -3.44518 
246 1 10.185 -110.918 5.69187 0.000491567 -3.44462 
247 1 8.148 -112.549 4.47055 0.000558493 -3.4446 
248 1 12.222 -112.136 7.3193 0.000214784 -3.44423 
249 1 12.222 -112.549 4.47055 0.000558493 -3.4446 
250 1 2.037 -117.03 3.65827 0.000946298 -3.44481 
251 1 2.037 -114.174 3.24813 0.000194589 -3.44428 
252 1 4.074 -115.407 4.87902 0.00121873 -3.44508 
253 1 6.111 -117.03 3.65827 0.000946298 -3.44481 
254 1 6.111 -114.174 3.24813 0.000194589 -3.44428 
255 1 4.074 -115.791 2.02449 0.00051554 -3.44505 
256 1 8.148 -115.407 4.87902 0.00121873 -3.44508 
257 1 10.185 -117.03 3.65827 0.000946298 -3.44481 
258 1 10.185 -114.174 3.24813 0.000194589 -3.44428 
259 1 8.148 -115.791 2.02449 0.00051554 -3.44505 
260 1 12.222 -115.407 4.87902 0.00121873 -3.44508 
261 1 12.222 -115.791 2.02449 0.00051554 -3.44505 
262 1 2.037 -120.236 1.20122 7.38854 -3.30001 
263 1 2.037 -117.407 0.802782 0.00551713 -3.44381 
264 1 4.074 -118.636 2.43513 0.00647337 -3.43704 
265 1 6.111 -120.236 1.20122 7.38854 -3.30001 
266 1 6.111 -117.407 0.802782 0.00551713 -3.44381 
267 1 8.148 -118.636 2.43513 0.00647337 -3.43704 
268 1 10.185 -120.236 1.20122 7.38854 -3.30001 
269 1 10.185 -117.407 0.802782 0.00551713 -3.44381 
270 1 12.222 -118.636 2.43513 0.00647337 -3.43704 
271 1 4.074 -121.746 20.3473 35.5335 -2.76709 
272 1 8.148 -121.746 20.3473 35.5335 -2.76709 
273 1 12.222 -121.746 20.3473 35.5335 -2.76709 
274 1 6.111 -88.4971 19.9556 8.37488e-09 -3.44406 
275 1 6.111 -85.6444 19.5488 2.6914e-09 -3.44406 
276 1 4.074 -87.2744 18.3262 2.77729e-08 -3.44406 
277 1 10.185 -88.4971 19.9556 8.37488e-09 -3.44406 
278 1 10.185 -85.6444 19.5488 2.6914e-09 -3.44406 
279 1 8.148 -87.2744 18.3262 2.77729e-08 -3.44406 
280 1 14.259 -88.4971 19.9556 8.37488e-09 -3.44406 
281 1 14.259 -85.6444 19.5488 2.6914e-09 -3.44406 
282 1 12.222 -87.2744 18.3262 2.77729e-08 -3.44406 
283 1 4.074 -90.127 18.733 8.24008e-08 -3.44406 
284 1 6.111 -91.7571 17.5103 2.49595e-07 -3.44405 
285 1 6.111 -88.9045 17.1036 7.99204e-08 -3.44406 
286 1 4.074 -90.5346 15.881 5.05595e-08 -3.44406 
287 1 8.148 -90.127 18.733 8.24008e-08 -3.44406 
288 1 10.185 -91.7571 17.5103 2.49595e-07 -3.44405 
289 1 10.185 -88.9045 17.1036 7.99204e-08 -3.44406 
290 1 8.148 -90.5346 15.881 5.05595e-08 -3.44406 
291 1 12.222 -90.127 18.733 8.24008e-08 -3.44406 
292 1 14.259 -91.7571 17.5103 2.49595e-07 -3.44405 
293 1 14.259 -88.9045 17.1036 7.99204e-08 -3.44406 
294 1 12.222 -90.5346 15.881 5.05595e-08 -3.44406 
295 1 4.074 -93.3872 16.2877 1.67593e-07 -3.44405 
296 1 6.111 -95.0175 15.0652 2.09532e-07 -3.44407 
297 1 6.111 -92.1648 14.6585 7.25958e-08 -3.44407 
298 1 4.074 -93.7951 13.4359 5.2527e-07 -3.44408 
299 1 8.148 -93.3872 16.2877 1.67593e-07 -3.44405 
300 1 10.185 -95.0175 15.0652 2.09532e-07 -3.44407 
301 1 10.185 -92.1648 14.6585 7.25958e-08 -3.44407 
302 1 8.148 -93.7951 13.4359 5.2527e-07 -3.44408 
303 1 12.222 -93.3872 16.2877 1.67593e-07 -3.44405 
304 1 14.259 -95.0175 15.0652 2.09532e-07 -3.44407 
305 1 14.259 -92.1648 14.6585 7.25958e-08 -3.44407 
306 1 12.222 -93.7951 13.4359 5.2527e-07 -3.44408 
307 1 4.074 -96.6479 13.8426 1.59999e-06 -3.44409 
308 1 6.111 -98.2781 12.6201 2.53648e-06 -3.4441 
309 1 6.111 -95.4252 12.2133 8.00848e-07 -3.44409 
310 1 4.074 -97.055 10.9908 2.68415e-07 -3.44407 
311 1 8.148 -96.6479 13.8426 1.59999e-06 -3.44409 
312 1 10.185 -98.2781 12.6201 2.53648e-06 -3.4441 
313 1 10.185 -95.4252 12.2133 8.00848e-07 -3.44409 
314 1 8.148 -97.055 10.9908 2.68415e-07 -3.44407 
315 1 12.222 -96.6479 13.8426 1.59999e-06 -3.44409 
316 1 14.259 -98.2781 12.6201 2.53648e-06 -3.4441 
317 1 14.259 -95.4252 12.2133 8.00848e-07 -3.44409 
318 1 12.222 -97.055 10.9908 2.68415e-07 -3.44407 
319 1 2.037 -101.537 10.1748 6.075e-06 -3.44401 
320 1 2.037 -98.6845 9.76808 2.09991e-06 -3.44403 
321 1 4.074 -99.9077 11.3975 8.62673e-07 -3.44408 
322 1 6.111 -101.537 10.1748 6.075e-06 -3.44401 
323 1 6.111 -98.6845 9.76808 2.09991e-06 -3.44403 
324 1 4.074 -100.314 8.54535 7.56259e-06 -3.44399 
325 1 8.148 -99.9077 11.3975 8.62673e-07 -3.44408 
326 1 10.185 -101.537 10.1748 6.075e-06 -3.44401 
327 1 10.185 -98.6845 9.76808 2.09991e-06 -3.44403 
328 1 8.148 -100.314 8.54535 7.56259e-06 -3.44399 
329 1 12.222 -99.9077 11.3975 8.62673e-07 -3.44408 
330 1 12.222 -100.314 8.54535 7.56259e-06 -3.44399 
331 1 2.037 -104.797 7.72916 2.12842e-05 -3.44395 
332 1 2.037 -101.945 7.32265 6.21464e-06 -3.444 
333 1 4.074 -103.166 8.95195 2.35333e-05 -3.44394 
334 1 6.111 -104.797 7.72916 2.12842e-05 -3.44395 
335 1 6.111 -101.945 7.32265 6.21464e-06 -3.444 
336 1 4.074 -103.576 6.10015 5.32378e-06 -3.44409 
337 1 8.148 -103.166 8.95195 2.35333e-05 -3.44394 
338 1 10.185 -104.797 7.72916 2.12842e-05 -3.44395 
339 1 10.185 -101.945 7.32265 6.21464e-06 -3.444 
340 1 8.148 -103.576 6.10015 5.32378e-06 -3.44409 
341 1 12.222 -103.166 8.95195 2.35333e-05 -3.44394 
342 1 12.222 -103.576 6.10015 5.32378e-06 -3.44409 
343 1 2.037 -108.062 5.28481 0.00014653 -3.44436 
344 1 2.037 -105.208 4.87794 4.61937e-05 -3.44423 
345 1 4.074 -106.429 6.50672 1.65748e-05 -3.44411 
346 1 6.111 -108.062 5.28481 0.00014653 -3.44436 
347 1 6.111 -105.208 4.87794 4.61937e-05 -3.44423 
348 1 4.074 -106.838 3.65578 7.46161e-05 -3.44427 
349 1 8.148 -106.429 6.50672 1.65748e-05 -3.44411 
350 1 10.185 -108.062 5.28481 0.00014653 -3.44436 
351 1 10.185 -105.208 4.87794 4.61937e-05 -3.44423 
352 1 8.148 -106.838 3.65578 7.46161e-05 -3.44427 
353 1 12.222 -106.429 6.50672 1.65748e-05 -3.44411 
354 1 12.222 -106.838 3.65578 7.46161e-05 -3.44427 
355 1 2.037 -111.32 2.8405 7.47428e-05 -3.44418 
356 1 2.037 -108.466 2.43326 2.6434e-05 -3.44414 
357 1 4.074 -109.693 4.06299 0.000214623 -3.44441 
358 1 6.111 -111.32 2.8405 7.47428e-05 -3.44418 
359 1 6.111 -108.466 2.43326 2.6434e-05 -3.44414 
360 1 4.074 -110.091 1.21005 0.000119773 -3.44387 
361 1 8.148 -109.693 4.06299 0.000214623 -3.44441 
362 1 10.185 -111.32 2.8405 7.47428e-05 -3.44418 
363 1 10.185 -108.466 2.43326 2.6434e-05 -3.44414 
364 1 8.148 -110.091 1.21005 0.000119773 -3.44387 
365 1 12.222 -109.693 4.06299 0.000214623 -3.44441 
366 1 12.222 -110.091 1.21005 0.000119773 -3.44387 
367 1 2.037 -114.563 0.39246 0.001879 -3.44312 
368 1 6.111 -111.717 20.3562 0.000668689 -3.44338 
369 1 4.074 -112.942 1.61692 0.000266092 -3.44385 
370 1 6.111 -114.563 0.39246 0.001879 -3.44312 
371 1 10.185 -111.717 20.3562 0.000668689 -3.44338 
372 1 8.148 -112.942 1.61692 0.000266092 -3.44385 
373 1 10.185 -114.563 0.39246 0.001879 -3.44312 
374 1 14.259 -111.717 20.3562 0.000668689 -3.44338 
375 1 12.222 -112.942 1.61692 0.000266092 -3.44385 
376 1 4.074 -78.3091 19.958 7.4936e-10 -3.44406 
377 1 8.148 -78.3091 19.958 7.4936e-10 -3.44406 
378 1 12.222 -78.3091 19.958 7.4936e-10 -3.44406 
379 1 6.111 -82.7918 19.1421 8.74573e-10 -3.44406 
380 1 6.111 -79.9391 18.7354 2.86513e-10 -3.44406 
381 1 4.074 -81.5692 17.5128 3.13478e-09 -3.44406 
382 1 10.185 -82.7918 19.1421 8.74573e-10 -3.44406 
383 1 10.185 -79.9391 18.7354 2.86513e-10 -3.44406 
384 1 8.148 -81.5692 17.5128 3.13478e-09 -3.44406 
385 1 14.259 -82.7918 19.1421 8.74573e-10 -3.44406 
386 1 14.259 -79.9391 18.7354 2.86513e-10 -3.44406 
387 1 12.222 -81.5692 17.5128 3.13478e-09 -3.44406 
388 1 4.074 -84.4218 17.9195 9.33855e-09 -3.44406 
389 1 6.111 -86.0519 16.6969 2.55663e-08 -3.44406 
390 1 6.111 -83.1993 16.2902 8.17492e-09 -3.44406 
391 1 4.074 -84.8294 15.0676 4.59496e-09 -3.44406 
392 1 8.148 -84.4218 17.9195 9.33855e-09 -3.44406 
393 1 10.185 -86.0519 16.6969 2.55663e-08 -3.44406 
394 1 10.185 -83.1993 16.2902 8.17492e-09 -3.44406 
395 1 8.148 -84.8294 15.0676 4.59496e-09 -3.44406 
396 1 12.222 -84.4218 17.9195 9.33855e-09 -3.44406 
397 1 14.259 -86.0519 16.6969 2.55663e-08 -3.44406 
398 1 14.259 -83.1993 16.2902 8.17492e-09 -3.44406 
399 1 12.222 -84.8294 15.0676 4.59496e-09 -3.44406 
400 1 4.074 -87.682 15.4743 1.52465e-08 -3.44406 
401 1 6.111 -89.3122 14.2517 2.51928e-08 -3.44407 
402 1 6.111 -86.4595 13.845 8.7412e-09 -3.44407 
403 1 4.074 -88.0896 12.6225 5.65015e-08 -3.44407 
404 1 8.148 -87.682 15.4743 1.52465e-08 -3.44406 
405 1 10.185 -89.3122 14.2517 2.51928e-08 -3.44407 
406 1 10.185 -86.4595 13.845 8.7412e-09 -3.44407 
407 1 8.148 -88.0896 12.6225 5.65015e-08 -3.44407 
408 1 12.222 -87.682 15.4743 1.52465e-08 -3.44406 
409 1 14.259 -89.3122 14.2517 2.51928e-08 -3.44407 
410 1 14.259 -86.4595 13.845 8.7412e-09 -3.44407 
411 1 12.222 -88.0896 12.6225 5.65015e-08 -3.44407 
412 1 4.074 -90.9423 13.0292 1.72363e-07 -3.44407 
413 1 6.111 -92.5724 11.8066 2.51565e-07 -3.44408 
414 1 6.111 -89.7197 11.3999 7.87432e-08 -3.44407 
415 1 4.074 -91.3497 10.1773 2.63571e-08 -3.44407 
416 1 8.148 -90.9423 13.0292 1.72363e-07 -3.44407 
417 1 10.185 -92.5724 11.8066 2.51565e-07 -3.44408 
418 1 10.185 -89.7197 11.3999 7.87432e-08 -3.44407 
419 1 8.148 -91.3497 10.1773 2.63571e-08 -3.44407 
420 1 12.222 -90.9423 13.0292 1.72363e-07 -3.44407 
421 1 14.259 -92.5724 11.8066 2.51565e-07 -3.44408 
422 1 14.259 -89.7197 11.3999 7.87432e-08 -3.44407 
423 1 12.222 -91.3497 10.1773 2.63571e-08 -3.44407 
424 1 2.037 -95.8321 9.36137 7.1778e-07 -3.44404 
425 1 2.037 -92.9796 8.95466 2.43723e-07 -3.44405 
426 1 4.074 -94.2023 10.584 8.37928e-08 -3.44407 
427 1 6.111 -95.8321 9.36137 7.1778e-07 -3.44404 
428 1 6.111 -92.9796 8.95466 2.43723e-07 -3.44405 
429 1 4.074 -94.6096 7.73202 7.78737e-07 -3.44404 
430 1 8.148 -94.2023 10.584 8.37928e-08 -3.44407 
431 1 10.185 -95.8321 9.36137 7.1778e-07 -3.44404 
432 1 10.185 -92.9796 8.95466 2.43723e-07 -3.44405 
433 1 8.148 -94.6096 7.73202 7.78737e-07 -3.44404 
434 1 12.222 -94.2023 10.584 8.37928e-08 -3.44407 
435 1 12.222 -94.6096 7.73202 7.78737e-07 -3.44404 
436 1 2.037 -99.0922 6.91605 1.85055e-06 -3.44403 
437 1 2.037 -96.2397 6.5094 5.55948e-07 -3.44405 
438 1 4.074 -97.462 8.1387 2.42765e-06 -3.44402 
439 1 6.111 -99.0922 6.91605 1.85055e-06 -3.44403 
440 1 6.111 -96.2397 6.5094 5.55948e-07 -3.44405 
441 1 4.074 -97.8703 5.28684 6.076e-07 -3.44408 
442 1 8.148 -97.462 8.1387 2.42765e-06 -3.44402 
443 1 10.185 -99.0922 6.91605 1.85055e-06 -3.44403 
444 1 10.185 -96.2397 6.5094 5.55948e-07 -3.44405 
445 1 8.148 -97.8703 5.28684 6.076e-07 -3.44408 
446 1 12.222 -97.462 8.1387 2.42765e-06 -3.44402 
447 1 12.222 -97.8703 5.28684 6.076e-07 -3.44408 
448 1 2.037 -102.354 4.47113 1.49315e-05 -3.44416 
449 1 2.037 -99.5009 4.06437 4.87806e-06 -3.44412 
450 1 4.074 -100.723 5.69351 1.78006e-06 -3.44408 
451 1 6.111 -102.354 4.47113 1.49315e-05 -3.44416 
452 1 6.111 -99.5009 4.06437 4.87806e-06 -3.44412 
453 1 4.074 -101.131 2.84192 7.96917e-06 -3.44413 
454 1 8.148 -100.723 5.69351 1.78006e-06 -3.44408 
455 1 10.185 -102.354 4.47113 1.49315e-05 -3.44416 
456 1 10.185 -99.5009 4.06437 4.87806e-06 -3.44412 
457 1 8.148 -101.131 2.84192 7.96917e-06 -3.44413 
458 1 12.222 -100.723 5.69351 1.78006e-06 -3.44408 
459 1 12.222 -101.131 2.84192 7.96917e-06 -3.44413 
460 1 2.037 -105.613 2.02623 8.70381e-06 -3.44411 
461 1 2.037 -102.76 1.61934 2.76209e-06 -3.44409 
462 1 4.074 -103.984 3.24879 2.46949e-05 -3.44419 
463 1 6.111 -105.613 2.02623 8.70381e-06 -3.44411 
464 1 6.111 -102.76 1.61934 2.76209e-06 -3.44409 
465 1 4.074 -104.389 0.39652 1.72253e-05 -3.44398 
466 1 8.148 -103.984 3.24879 2.46949e-05 -3.44419 
467 1 10.185 -105.613 2.02623 8.70381e-06 -3.44411 
468 1 10.185 -102.76 1.61934 2.76209e-06 -3.44409 
469 1 8.148 -104.389 0.39652 1.72253e-05 -3.44398 
470 1 12.222 -103.984 3.24879 2.46949e-05 -3.44419 
471 1 12.222 -104.389 0.39652 1.72253e-05 -3.44398 
472 1 4.074 -107.24 0.803264 4.70544e-05 -3.44393 
473 1 8.148 -107.24 0.803264 4.70544e-05 -3.44393 
474 1 12.222 -107.24 0.803264 4.70544e-05 -3.44393 
475 1 4.074 -72.6038 19.1446 8.27962e-11 -3.44406 
476 1 8.148 -72.6038 19.1446 8.27962e-11 -3.44406 
477 1 12.222 -72.6038 19.1446 8.27962e-11 -3.44406 
478 1 4.074 -75.4564 19.5513 2.40351e-10 -3.44406 
479 1 6.111 -77.0865 18.3287 9.37002e-11 -3.44406 
480 1 6.111 -74.2339 17.922 2.96783e-11 -3.44406 
481 1 4.074 -75.8639 16.6994 3.54653e-10 -3.44406 
482 1 8.148 -75.4564 19.5513 2.40351e-10 -3.44406 
483 1 10.185 -77.0865 18.3287 9.37002e-11 -3.44406 
484 1 10.185 -74.2339 17.922 2.96783e-11 -3.44406 
485 1 8.148 -75.8639 16.6994 3.54653e-10 -3.44406 
486 1 12.222 -75.4564 19.5513 2.40351e-10 -3.44406 
487 1 14.259 -77.0865 18.3287 9.37002e-11 -3.44406 
488 1 14.259 -74.2339 17.922 2.96783e-11 -3.44406 
489 1 12.222 -75.8639 16.6994 3.54653e-10 -3.44406 
490 1 4.074 -78.7166 17.1061 1.05209e-09 -3.44406 
491 1 6.111 -80.3466 15.8835 2.61778e-09 -3.44406 
492 1 6.111 -77.494 15.4768 8.44679e-10 -3.44406 
493 1 4.074 -79.1241 14.2542 4.19197e-10 -3.44406 
494 1 8.148 -78.7166 17.1061 1.05209e-09 -3.44406 
495 1 10.185 -80.3466 15.8835 2.61778e-09 -3.44406 
496 1 10.185 -77.494 15.4768 8.44679e-10 -3.44406 
497 1 8.148 -79.1241 14.2542 4.19197e-10 -3.44406 
498 1 12.222 -78.7166 17.1061 1.05209e-09 -3.44406 
499 1 14.259 -80.3466 15.8835 2.61778e-09 -3.44406 
500 1 14.259 -77.494 15.4768 8.44679e-10 -3.44406 
501 1 12.222 -79.1241 14.2542 4.19197e-10 -3.44406 
502 1 4.074 -81.9767 14.6609 1.38532e-09 -3.44406 
503 1 6.111 -83.6068 13.4383 3.0288e-09 -3.44406 
504 1 6.111 -80.7542 13.0316 1.04673e-09 -3.44406 
505 1 4.074 -82.3843 11.809 6.05468e-09 -3.44407 
506 1 8.148 -81.9767 14.6609 1.38532e-09 -3.44406 
507 1 10.185 -83.6068 13.4383 3.0288e-09 -3.44406 
508 1 10.185 -80.7542 13.0316 1.04673e-09 -3.44406 
509 1 8.148 -82.3843 11.809 6.05468e-09 -3.44407 
510 1 12.222 -81.9767 14.6609 1.38532e-09 -3.44406 
511 1 14.259 -83.6068 13.4383 3.0288e-09 -3.44406 
512 1 14.259 -80.7542 13.0316 1.04673e-09 -3.44406 
513 1 12.222 -82.3843 11.809 6.05468e-09 -3.44407 
514 1 4.074 -85.2369 12.2157 1.85012e-08 -3.44407 
515 1 6.111 -86.867 10.9932 2.45843e-08 -3.44407 
516 1 6.111 -84.0144 10.5864 7.66303e-09 -3.44407 
517 1 4.074 -85.6444 9.36385 2.6914e-09 -3.44406 
518 1 8.148 -85.2369 12.2157 1.85012e-08 -3.44407 
519 1 10.185 -86.867 10.9932 2.45843e-08 -3.44407 
520 1 10.185 -84.0144 10.5864 7.66303e-09 -3.44407 
521 1 8.148 -85.6444 9.36385 2.6914e-09 -3.44406 
522 1 12.222 -85.2369 12.2157 1.85012e-08 -3.44407 
523 1 14.259 -86.867 10.9932 2.45843e-08 -3.44407 
524 1 14.259 -84.0144 10.5864 7.66303e-09 -3.44407 
525 1 12.222 -85.6444 9.36385 2.6914e-09 -3.44406 
526 1 2.037 -90.127 8.54795 8.24008e-08 -3.44406 
527 1 2.037 -87.2744 8.14124 2.77729e-08 -3.44406 
528 1 4.074 -88.4971 9.77056 8.37488e-09 -3.44406 
529 1 6.111 -90.127 8.54795 8.24008e-08 -3.44406 
530 1 6.111 -87.2744 8.14124 2.77729e-08 -3.44406 
531 1 4.074 -88.9045 6.91863 7.99204e-08 -3.44406 
532 1 8.148 -88.4971 9.77056 8.37488e-09 -3.44406 
533 1 10.185 -90.127 8.54795 8.24008e-08 -3.44406 
534 1 10.185 -87.2744 8.14124 2.77729e-08 -3.44406 
535 1 8.148 -88.9045 6.91863 7.99204e-08 -3.44406 
536 1 12.222 -88.4971 9.77056 8.37488e-09 -3.44406 
537 1 12.222 -88.9045 6.91863 7.99204e-08 -3.44406 
538 1 2.037 -93.3872 6.10272 1.67593e-07 -3.44405 
539 1 2.037 -90.5346 5.69603 5.05595e-08 -3.44406 
540 1 4.074 -91.7571 7.32533 2.49595e-07 -3.44405 
541 1 6.111 -93.3872 6.10272 1.67593e-07 -3.44405 
542 1 6.111 -90.5346 5.69603 5.05595e-08 -3.44406 
543 1 4.074 -92.1648 4.47345 7.25958e-08 -3.44407 
544 1 8.148 -91.7571 7.32533 2.49595e-07 -3.44405 
545 1 10.185 -93.3872 6.10272 1.67593e-07 -3.44405 
546 1 10.185 -90.5346 5.69603 5.05595e-08 -3.44406 
547 1 8.148 -92.1648 4.47345 7.25958e-08 -3.44407 
548 1 12.222 -91.7571 7.32533 2.49595e-07 -3.44405 
549 1 12.222 -92.1648 4.47345 7.25958e-08 -3.44407 
550 1 2.037 -96.6479 3.65763 1.59999e-06 -3.44409 
551 1 2.037 -93.7951 3.2509 5.2527e-07 -3.44408 
552 1 4.074 -95.0175 4.88015 2.09532e-07 -3.44407 
553 1 6.111 -96.6479 3.65763 1.59999e-06 -3.44409 
554 1 6.111 -93.7951 3.2509 5.2527e-07 -3.44408 
555 1 4.074 -95.4252 2.02835 8.00848e-07 -3.44409 
556 1 8.148 -95.0175 4.88015 2.09532e-07 -3.44407 
557 1 10.185 -96.6479 3.65763 1.59999e-06 -3.44409 
558 1 10.185 -93.7951 3.2509 5.2527e-07 -3.44408 
559 1 8.148 -95.4252 2.02835 8.00848e-07 -3.44409 
560 1 12.222 -95.0175 4.88015 2.09532e-07 -3.44407 
561 1 12.222 -95.4252 2.02835 8.00848e-07 -3.44409 
562 1 2.037 -99.9077 1.21253 8.62673e-07 -3.44408 
563 1 2.037 -97.055 0.805756 2.68415e-07 -3.44407 
564 1 4.074 -98.2781 2.43511 2.53648e-06 -3.4441 
565 1 6.111 -99.9077 1.21253 8.62673e-07 -3.44408 
566 1 6.111 -97.055 0.805756 2.68415e-07 -3.44407 
567 1 8.148 -98.2781 2.43511 2.53648e-06 -3.4441 
568 1 10.185 -99.9077 1.21253 8.62673e-07 -3.44408 
569 1 10.185 -97.055 0.805756 2.68415e-07 -3.44407 
570 1 12.222 -98.2781 2.43511 2.53648e-06 -3.4441 
571 1 4.074 -101.537 20.3598 6.075e-06 -3.44401 
572 1 8.148 -101.537 20.3598 6.075e-06 -3.44401 
573 1 12.222 -101.537 20.3598 6.075e-06 -3.44401 
574 1 6.111 -68.1211 19.9605 3.83714e-11 -3.44406 
575 1 6.111 -65.2684 19.5538 2.91472e-11 -3.44406 
576 1 4.074 -66.8985 18.3312 2.31349e-11 -3.44406 
577 1 10.185 -68.1211 19.9605 3.83714e-11 -3.44406 
578 1 10.185 -65.2684 19.5538 2.91472e-11 -3.44406 
579 1 8.148 -66.8985 18.3312 2.31349e-11 -3.44406 
580 1 14.259 -68.1211 19.9605 3.83714e-11 -3.44406 
581 1 14.259 -65.2684 19.5538 2.91472e-11 -3.44406 
582 1 12.222 -66.8985 18.3312 2.31349e-11 -3.44406 
583 1 4.074 -69.7511 18.7379 3.48818e-11 -3.44406 
584 1 6.111 -71.3812 17.5153 8.26213e-12 -3.44406 
585 1 6.111 -68.5286 17.1086 1.41407e-12 -3.44406 
586 1 4.074 -70.1587 15.886 4.48721e-11 -3.44406 
587 1 8.148 -69.7511 18.7379 3.48818e-11 -3.44406 
588 1 10.185 -71.3812 17.5153 8.26213e-12 -3.44406 